/*--------------------------------*- C++ -*----------------------------------*\
| =========                 |                                                 |
| \\      /  F ield         | OpenFOAM: The Open Source CFD Toolbox           |
|  \\    /   O peration     | Version:  5.x                                   |
|   \\  /    A nd           | Web:      www.OpenFOAM.org                      |
|    \\/     M anipulation  |                                                 |
\*---------------------------------------------------------------------------*/
FoamFile
{
    version     2.0;
    format      ascii;
    class       volVectorField;
    location    "8.9";
    object      U;
}
// * * * * * * * * * * * * * * * * * * * * * * * * * * * * * * * * * * * * * //

dimensions      [0 1 -1 0 0 0 0];

internalField   nonuniform List<vector> 
400
(
(-0.0110307 0.00980697 0)
(-0.0309675 0.00599212 0)
(-0.0415256 0.00175544 0)
(-0.0436086 -0.00126927 0)
(-0.0423678 0.000191866 0)
(-0.0447548 -0.00187226 0)
(-0.0402646 0.0012295 0)
(-0.0494876 0.00242823 0)
(-0.0470339 -0.0078424 0)
(-0.0402285 -0.00188981 0)
(-0.0504752 0.0015816 0)
(-0.0464667 -0.00391242 0)
(-0.0470142 -0.0019459 0)
(-0.0475987 -0.00158445 0)
(-0.0478979 -0.00189431 0)
(-0.0468674 -0.0024823 0)
(-0.0456613 -0.00308097 0)
(-0.0405252 -0.0058338 0)
(-0.0402531 -0.00988566 0)
(-0.00307184 -0.0162908 0)
(-0.00671862 0.0268259 0)
(-0.0215637 0.0217436 0)
(-0.0284636 0.0127382 0)
(-0.0317216 0.0041153 0)
(-0.029237 -0.000286033 0)
(-0.0268475 0.00036042 0)
(-0.0227291 0.00157863 0)
(-0.0201349 0.00239997 0)
(-0.0179505 0.00206353 0)
(-0.0180069 0.00291522 0)
(-0.0197606 0.00375161 0)
(-0.0168213 0.00217653 0)
(-0.0198815 0.00274842 0)
(-0.0178433 0.000640264 0)
(-0.0215352 0.00185799 0)
(-0.0169257 -0.000514504 0)
(-0.0226539 -0.000597258 0)
(-0.0161337 -0.00871906 0)
(-0.0283856 -0.0193103 0)
(-0.00291321 -0.0384049 0)
(-0.00516983 0.0377004 0)
(-0.0185146 0.0291712 0)
(-0.0226148 0.0151848 0)
(-0.0251173 0.00207325 0)
(-0.0227016 -0.00586298 0)
(-0.0193829 -0.00733045 0)
(-0.0153267 -0.00650004 0)
(-0.0115332 -0.00406528 0)
(-0.00934716 -0.00455681 0)
(-0.00620295 -0.0032618 0)
(-0.00632799 -0.000682783 0)
(-0.00177308 -0.00188502 0)
(-0.00540878 -0.000278702 0)
(0.000592613 -0.00187239 0)
(-0.00613925 -0.000289194 0)
(0.00241966 -0.00310613 0)
(-0.00610659 -0.000801156 0)
(0.00307112 -0.00126712 0)
(-0.00799248 -0.00980075 0)
(0.000304899 -0.0445991 0)
(-0.00344846 0.0475816 0)
(-0.0140518 0.0371738 0)
(-0.0161727 0.0205287 0)
(-0.0181548 0.00447208 0)
(-0.0154739 -0.00689662 0)
(-0.0124373 -0.00905619 0)
(-0.00942983 -0.0075027 0)
(-0.00619323 -0.00529523 0)
(-0.00476074 -0.00327972 0)
(-0.00237836 -0.00151426 0)
(-0.0030654 0.000179502 0)
(0.00011063 0.000317169 0)
(-0.00215306 0.00114262 0)
(0.000888459 0.000534825 0)
(-0.00242217 0.000779835 0)
(0.000301051 -0.00107234 0)
(-0.00453206 -0.00112669 0)
(-0.00113121 -0.00791724 0)
(-0.00758751 -0.0176718 0)
(0.00237903 -0.049356 0)
(-0.00176922 0.0541299 0)
(-0.0091288 0.0424923 0)
(-0.00999006 0.0229168 0)
(-0.0104036 0.00252107 0)
(-0.0077674 -0.0109207 0)
(-0.00656038 -0.0133892 0)
(-0.00542178 -0.0115717 0)
(-0.00403763 -0.0087611 0)
(-0.00390742 -0.00626199 0)
(-0.00227689 -0.00475937 0)
(-0.00301099 -0.00281021 0)
(0.000149224 -0.00261333 0)
(-0.00195365 -0.000936464 0)
(0.00212752 -0.00206994 0)
(-0.00100003 0.00038262 0)
(0.00352612 -0.00212723 0)
(-0.000906985 0.00118476 0)
(0.00338315 -0.000974081 0)
(-0.00236299 -0.00995914 0)
(0.00207129 -0.0489243 0)
(0.00106216 0.0593114 0)
(-0.00165232 0.0462836 0)
(-0.00250706 0.0245499 0)
(-0.000635804 0.00182749 0)
(0.000419435 -0.0110359 0)
(0.000383676 -0.0128138 0)
(-0.000239632 -0.0104381 0)
(0.000498693 -0.0074836 0)
(-0.000419584 -0.00520245 0)
(0.00117265 -0.00353104 0)
(-0.000726969 -0.00196333 0)
(0.00178476 -0.00126455 0)
(-0.00102298 -0.000386786 0)
(0.00218259 -0.000417794 0)
(-0.00163469 0.000253865 0)
(0.00272642 -0.00116338 0)
(-0.00289508 -0.000123245 0)
(0.00361976 -0.00557371 0)
(-0.00355441 -0.0156548 0)
(0.00368459 -0.0509258 0)
(0.00470785 0.056386 0)
(0.00354168 0.047236 0)
(0.00492354 0.0240987 0)
(0.00895509 0.000304565 0)
(0.00832753 -0.0109157 0)
(0.00646783 -0.0125802 0)
(0.00431201 -0.0107215 0)
(0.00366578 -0.00828229 0)
(0.00182115 -0.00612319 0)
(0.00265701 -0.00467536 0)
(0.000497423 -0.00309691 0)
(0.00281788 -0.00285164 0)
(-0.000127515 -0.0012727 0)
(0.00332099 -0.00218802 0)
(-0.000691364 -5.15108e-05 0)
(0.00372174 -0.00175459 0)
(-0.00168612 0.000260879 0)
(0.00348175 -0.0019833 0)
(-0.00332206 -0.0115761 0)
(0.00297291 -0.0498564 0)
(0.00510947 0.0506976 0)
(0.00696345 0.0464286 0)
(0.0135441 0.0209906 0)
(0.0175534 -0.000945708 0)
(0.0146112 -0.00951056 0)
(0.010524 -0.00991688 0)
(0.00660827 -0.00761395 0)
(0.00521017 -0.00533528 0)
(0.00260374 -0.0035879 0)
(0.00350819 -0.00233327 0)
(0.000563593 -0.00129992 0)
(0.00309385 -0.000750436 0)
(-0.00071631 2.80938e-05 0)
(0.00331269 -7.15858e-05 0)
(-0.00172775 0.000819487 0)
(0.00387703 -0.000335237 0)
(-0.00278549 0.00105846 0)
(0.00428564 -0.0032373 0)
(-0.00349875 -0.0130011 0)
(0.0045134 -0.0509569 0)
(0.00344653 0.0428899 0)
(0.0103047 0.0383955 0)
(0.0198432 0.0158381 0)
(0.0214949 0.000252413 0)
(0.0178112 -0.00461635 0)
(0.0139866 -0.00553507 0)
(0.0102606 -0.00523766 0)
(0.00810302 -0.00512121 0)
(0.00516129 -0.00414596 0)
(0.0052055 -0.00376751 0)
(0.00233159 -0.00250039 0)
(0.00434205 -0.00265807 0)
(0.000722805 -0.00123653 0)
(0.00427747 -0.00221753 0)
(-0.000848914 -0.000342038 0)
(0.00428753 -0.00178109 0)
(-0.0025782 7.19248e-05 0)
(0.00409322 -0.00286261 0)
(-0.00485489 -0.0131377 0)
(0.00349881 -0.0505932 0)
(0.00373994 0.034989 0)
(0.0160466 0.0277264 0)
(0.0228796 0.0112845 0)
(0.0216175 0.00118244 0)
(0.0161407 -0.00312909 0)
(0.0114145 -0.00284737 0)
(0.00778947 -0.00138517 0)
(0.00683877 -0.000341547 0)
(0.00416267 0.000330002 0)
(0.00500104 0.000433992 0)
(0.00157082 0.000677239 0)
(0.00412018 0.000664803 0)
(-0.000595123 0.00109752 0)
(0.00434495 0.00116237 0)
(-0.00239094 0.00202138 0)
(0.00558086 0.000995897 0)
(-0.00275887 0.00234449 0)
(0.00555549 -0.000675726 0)
(-0.00395201 -0.0100956 0)
(0.00525395 -0.0512767 0)
(0.00548593 0.0206066 0)
(0.0158742 0.017951 0)
(0.0199371 0.0113902 0)
(0.0192196 0.00679955 0)
(0.0167456 0.00492211 0)
(0.01412 0.00156366 0)
(0.0104822 -0.00072546 0)
(0.00826223 -0.00254908 0)
(0.00510515 -0.00217289 0)
(0.0054424 -0.00229934 0)
(0.00224153 -0.00135483 0)
(0.00503349 -0.0015104 0)
(0.000541861 -0.00104655 0)
(0.00541649 -0.00130859 0)
(-0.000889647 -0.00135902 0)
(0.00489141 -0.00259998 0)
(-0.00375649 0.000532667 0)
(0.00574795 -0.00315049 0)
(-0.00610022 -0.0138739 0)
(0.00484996 -0.0513512 0)
(0.00814664 0.0129977 0)
(0.0173453 0.0145385 0)
(0.0160774 0.00870596 0)
(0.0143716 0.00432143 0)
(0.0130046 0.00251368 0)
(0.0124078 0.00417143 0)
(0.0106407 0.00496213 0)
(0.00970409 0.00524122 0)
(0.00617328 0.00403488 0)
(0.00620187 0.00323024 0)
(0.0026923 0.00198511 0)
(0.0040599 0.00198456 0)
(0.000258695 0.00178596 0)
(0.00259266 0.00198449 0)
(-0.00340323 0.00405009 0)
(0.00539995 0.00339159 0)
(-0.00588383 0.00267563 0)
(0.00701637 0.00154974 0)
(-0.00538286 -0.00685215 0)
(0.00646188 -0.0505697 0)
(0.00382477 -0.00777218 0)
(0.0148298 0.0124792 0)
(0.0153901 0.0126648 0)
(0.0135748 0.0102173 0)
(0.00737638 0.00640181 0)
(0.00387003 0.00194414 0)
(0.0022357 0.00174275 0)
(0.00158031 0.000361099 0)
(0.00148515 0.00109902 0)
(0.00217043 -0.000150812 0)
(0.000875739 0.000794958 0)
(0.00373091 -0.000136029 0)
(-0.00204309 0.000266001 0)
(0.00775019 0.00131093 0)
(-0.00374527 -0.0042235 0)
(0.00810874 -0.000898018 0)
(-0.00544854 -0.000929657 0)
(0.0101734 -0.00492828 0)
(-0.00679358 -0.014562 0)
(0.00640914 -0.0517556 0)
(-0.00158074 -0.00727776 0)
(0.00718686 0.00567052 0)
(0.00613262 0.00999772 0)
(0.0112083 0.0123456 0)
(0.0135747 0.0114184 0)
(0.0137774 0.0105439 0)
(0.0122821 0.00789814 0)
(0.0132604 0.00720235 0)
(0.00864214 0.00422825 0)
(0.0109531 0.00497388 0)
(0.00456642 0.001124 0)
(0.00909525 0.0056247 0)
(0.00192948 -0.00106509 0)
(0.00438195 0.00388239 0)
(1.20352e-06 0.0051552 0)
(-0.0057462 0.00439287 0)
(-0.0105082 0.00209803 0)
(0.00575756 0.00232818 0)
(-0.00663282 0.000438286 0)
(0.00833272 -0.0504195 0)
(-0.00328481 -0.0121948 0)
(0.0105466 0.00900015 0)
(0.00016961 0.00507803 0)
(0.00464728 0.00563531 0)
(-0.000315165 0.00496765 0)
(0.00395516 0.00310212 0)
(-8.74562e-05 0.00324424 0)
(0.000699354 0.00273261 0)
(-0.000500456 0.00314498 0)
(-0.00272792 0.00239755 0)
(-0.00023246 0.00229819 0)
(-0.00652409 0.00119306 0)
(-0.000225222 0.0044488 0)
(-0.00760438 0.00238402 0)
(-0.00404746 0.00388015 0)
(0.0042378 0.00792201 0)
(-0.000186405 -0.011749 0)
(0.00120005 -0.0113778 0)
(-0.00949089 -0.0198005 0)
(0.00717984 -0.0534866 0)
(-0.00194935 -0.01954 0)
(0.00292738 0.00187519 0)
(-0.00088748 0.0149968 0)
(0.00520414 0.011507 0)
(0.00599877 0.0109048 0)
(0.00626249 0.0094537 0)
(0.00670544 0.00987282 0)
(0.00928391 0.00760348 0)
(0.00582779 0.00758246 0)
(0.0125058 0.00601339 0)
(0.00441264 0.00482121 0)
(0.0146926 0.00814169 0)
(0.00121733 -0.000960435 0)
(0.016833 0.00942471 0)
(-0.000807955 -0.00501949 0)
(0.0129916 0.00133148 0)
(0.00158987 0.00812669 0)
(0.00748122 0.0111996 0)
(-0.00612141 0.000129993 0)
(0.00968715 -0.0495322 0)
(-0.00106269 -0.0071467 0)
(-0.0146073 0.00921262 0)
(-0.00774822 0.00335089 0)
(-0.00786882 -3.24018e-06 0)
(-0.00665543 0.00624845 0)
(-0.00462716 0.00092003 0)
(-0.0060696 0.00308664 0)
(-0.000849623 0.00274971 0)
(-0.00721411 0.00122289 0)
(0.00216911 0.00240299 0)
(-0.00788746 0.000132606 0)
(0.00332601 0.00317324 0)
(-0.00401234 0.000803383 0)
(-0.00152172 0.00500795 0)
(0.000576958 0.00687062 0)
(-0.00478325 0.0035461 0)
(-0.0067109 -0.00698351 0)
(0.0141926 -0.00505026 0)
(-0.00655857 -0.0256336 0)
(0.0087219 -0.0538806 0)
(-0.00553473 -0.00963229 0)
(0.00293183 0.0108568 0)
(0.00904913 0.00582396 0)
(0.00281567 0.0094515 0)
(0.00794918 0.00839384 0)
(0.00653558 0.00793442 0)
(0.0085537 0.00649133 0)
(0.00889367 0.0068267 0)
(0.0108719 0.0061339 0)
(0.00956686 0.00528542 0)
(0.0121013 0.00581 0)
(0.00930679 0.00482348 0)
(0.01141 0.00380303 0)
(0.0121335 0.00713754 0)
(0.00786537 -0.00346576 0)
(0.0169153 0.00999458 0)
(0.00566826 -0.00782563 0)
(0.0132355 0.00996206 0)
(-0.00352108 0.0121912 0)
(0.0140016 -0.0457969 0)
(-0.0196314 -0.00290373 0)
(-0.0117646 -0.00289056 0)
(-0.0212973 0.0023507 0)
(-0.0128051 0.000139244 0)
(-0.0180335 0.00246979 0)
(-0.00906215 0.000180391 0)
(-0.016988 0.00123254 0)
(-0.00655679 0.000786304 0)
(-0.0150775 0.000895535 0)
(-0.00414935 0.000316114 0)
(-0.014969 0.000874448 0)
(0.00101028 0.000945623 0)
(-0.0151703 -0.000998145 0)
(0.00467562 0.00670666 0)
(-0.00949527 0.00031654 0)
(-0.00134473 0.00694864 0)
(0.00334377 -0.00359483 0)
(-0.0136931 -0.000876631 0)
(0.0189701 -0.0289033 0)
(0.01319 -0.0516373 0)
(-0.000258179 0.0173401 0)
(0.016403 0.0143542 0)
(0.0128516 0.00731006 0)
(0.0223208 0.00748651 0)
(0.0236383 0.00516805 0)
(0.0264596 0.00515398 0)
(0.0307856 0.00509718 0)
(0.0333593 0.00423478 0)
(0.0340446 0.00442305 0)
(0.0393941 0.00405165 0)
(0.0390857 0.00373878 0)
(0.0414996 0.00296783 0)
(0.0455711 0.00360548 0)
(0.0439588 0.000835429 0)
(0.048977 0.00314981 0)
(0.0492814 -0.000341372 0)
(0.0512757 0.00172731 0)
(0.0514631 -0.000259475 0)
(0.0438088 -0.00523657 0)
(0.0252964 -0.000864176 0)
)
;

boundaryField
{
    movingWall
    {
        type            fixedValue;
        value           uniform (1 0 0);
    }
    fixedWalls
    {
        type            noSlip;
    }
    frontAndBack
    {
        type            empty;
    }
}


// ************************************************************************* //
