/*--------------------------------*- C++ -*----------------------------------*\
| =========                 |                                                 |
| \\      /  F ield         | OpenFOAM: The Open Source CFD Toolbox           |
|  \\    /   O peration     | Version:  5.x                                   |
|   \\  /    A nd           | Web:      www.OpenFOAM.org                      |
|    \\/     M anipulation  |                                                 |
\*---------------------------------------------------------------------------*/
FoamFile
{
    version     2.0;
    format      ascii;
    class       surfaceScalarField;
    location    "9.1";
    object      phi;
}
// * * * * * * * * * * * * * * * * * * * * * * * * * * * * * * * * * * * * * //

dimensions      [0 3 -1 0 0 0 0];

internalField   nonuniform List<scalar> 
760
(
-9.77589e-07
9.77589e-07
-1.61747e-06
6.39884e-07
-1.93803e-06
3.20555e-07
-2.08744e-06
1.49413e-07
-2.18345e-06
9.60084e-08
-2.26162e-06
7.81737e-08
-2.34697e-06
8.53499e-08
-2.27749e-06
-6.94797e-08
-2.24312e-06
-3.43717e-08
-2.39124e-06
1.48117e-07
-2.37279e-06
-1.84464e-08
-2.33611e-06
-3.6685e-08
-2.40356e-06
6.74475e-08
-2.35005e-06
-5.35012e-08
-2.35086e-06
8.03341e-10
-2.28281e-06
-6.8049e-08
-2.21106e-06
-7.17449e-08
-1.89311e-06
-3.17955e-07
-1.22911e-06
-6.63997e-07
-1.22911e-06
-6.0527e-07
1.58286e-06
-1.11521e-06
1.14983e-06
-1.37638e-06
5.81721e-07
-1.38193e-06
1.54967e-07
-1.24335e-06
-4.25708e-08
-1.10852e-06
-5.66588e-08
-9.60112e-07
-6.306e-08
-9.71719e-07
-5.78724e-08
-9.81716e-07
-2.43747e-08
-8.90761e-07
5.7162e-08
-9.45894e-07
3.66872e-08
-9.73789e-07
-8.78986e-09
-9.64213e-07
5.78706e-08
-9.62808e-07
-5.49054e-08
-9.87388e-07
2.53825e-08
-9.54753e-07
-1.00684e-07
-9.8762e-07
-3.88781e-08
-1.03355e-06
-2.7203e-07
-9.01939e-07
-7.95603e-07
-2.13105e-06
-4.98659e-07
2.08152e-06
-9.10333e-07
1.5615e-06
-1.14568e-06
8.17069e-07
-1.15327e-06
1.62552e-07
-9.81416e-07
-2.14422e-07
-7.76856e-07
-2.61218e-07
-6.06809e-07
-2.33107e-07
-4.83627e-07
-1.81055e-07
-3.72199e-07
-1.35803e-07
-2.63829e-07
-5.12072e-08
-2.07958e-07
-1.91847e-08
-1.74006e-07
-4.2741e-08
-1.32947e-07
1.68111e-08
-1.37102e-07
-5.075e-08
-1.09092e-07
-2.62735e-09
-9.1998e-08
-1.17778e-07
-8.19517e-08
-4.89243e-08
-1.01672e-07
-2.52309e-07
-2.21706e-07
-6.75568e-07
-2.35276e-06
-3.73638e-07
2.45516e-06
-7.00211e-07
1.88807e-06
-9.18673e-07
1.03553e-06
-9.19973e-07
1.63852e-07
-7.555e-07
-3.78895e-07
-5.63733e-07
-4.52985e-07
-4.04851e-07
-3.91989e-07
-2.83462e-07
-3.02444e-07
-2.11564e-07
-2.07701e-07
-1.29891e-07
-1.32881e-07
-8.428e-08
-6.47952e-08
-5.89888e-08
-6.80323e-08
-4.51233e-08
2.94565e-09
-4.67107e-08
-4.91626e-08
-7.75304e-08
2.81923e-08
-1.1576e-07
-7.95486e-08
-1.66579e-07
1.89423e-09
-2.01132e-07
-2.17756e-07
-1.61114e-07
-7.15586e-07
-2.51387e-06
-2.84122e-07
2.73928e-06
-5.34437e-07
2.13839e-06
-6.8279e-07
1.18388e-06
-6.53117e-07
1.34179e-07
-5.35969e-07
-4.96043e-07
-4.0784e-07
-5.81113e-07
-3.10382e-07
-4.89447e-07
-2.43843e-07
-3.68983e-07
-1.9212e-07
-2.59424e-07
-1.33581e-07
-1.91421e-07
-8.35523e-08
-1.14823e-07
-4.38471e-08
-1.07737e-07
7.47612e-10
-4.16491e-08
3.20846e-08
-8.04996e-08
5.40036e-08
6.27324e-09
7.86374e-08
-1.04182e-07
6.31413e-08
1.73903e-08
3.75236e-08
-1.92138e-07
-1.36548e-08
-6.64408e-07
-2.52753e-06
-1.65687e-07
2.90497e-06
-2.7523e-07
2.24793e-06
-3.35023e-07
1.24368e-06
-3.01939e-07
1.01096e-07
-2.28818e-07
-5.69164e-07
-1.54814e-07
-6.55117e-07
-9.58001e-08
-5.48461e-07
-5.78609e-08
-4.06923e-07
-2.49448e-08
-2.9234e-07
-1.05854e-08
-2.0578e-07
6.52829e-09
-1.31937e-07
7.23169e-09
-1.08441e-07
1.30412e-08
-4.74586e-08
4.06857e-09
-7.15269e-08
1.35911e-08
-3.24933e-09
-1.336e-08
-7.72313e-08
5.74732e-09
-1.71698e-09
-1.93651e-09
-1.84455e-07
-3.9261e-09
-6.62418e-07
-2.53145e-06
3.56667e-08
2.8693e-06
1.08426e-08
2.27276e-06
3.45077e-08
1.22001e-06
1.00945e-07
3.46581e-08
1.11369e-07
-5.79588e-07
1.05197e-07
-6.48945e-07
8.69963e-08
-5.3026e-07
6.99427e-08
-3.89869e-07
5.84573e-08
-2.80854e-07
5.50017e-08
-2.02325e-07
5.84638e-08
-1.35399e-07
6.26261e-08
-1.12603e-07
6.60899e-08
-5.09225e-08
7.1682e-08
-7.7119e-08
6.33584e-08
5.07431e-09
5.89888e-08
-7.28617e-08
3.57673e-08
2.15045e-08
3.42243e-10
-1.49029e-07
-2.48256e-08
-6.3725e-07
-2.55628e-06
3.3499e-07
2.53431e-06
3.89615e-07
2.21813e-06
4.76413e-07
1.13321e-06
5.2094e-07
-9.86901e-09
4.4084e-07
-4.99488e-07
3.23685e-07
-5.3179e-07
2.16605e-07
-4.23181e-07
1.49574e-07
-3.22837e-07
1.07438e-07
-2.38719e-07
8.32388e-08
-1.78125e-07
6.62305e-08
-1.18391e-07
5.23231e-08
-9.86957e-08
4.71498e-08
-4.57492e-08
3.57389e-08
-6.57082e-08
4.21311e-08
-1.31779e-09
2.85863e-08
-5.93169e-08
2.50693e-08
2.50214e-08
2.38819e-08
-1.47842e-07
1.58436e-08
-6.29212e-07
-2.54043e-06
4.33982e-07
2.10033e-06
6.20952e-07
2.03116e-06
8.22383e-07
9.31782e-07
8.22126e-07
-9.61209e-09
7.01031e-07
-3.78393e-07
5.57699e-07
-3.88457e-07
4.24586e-07
-2.90068e-07
3.20601e-07
-2.18852e-07
2.37662e-07
-1.5578e-07
1.86217e-07
-1.2668e-07
1.50729e-07
-8.29027e-08
1.30359e-07
-7.83262e-08
1.13415e-07
-2.88049e-08
9.49298e-08
-4.7223e-08
7.22553e-08
2.13567e-08
5.18355e-08
-3.88971e-08
3.16711e-08
4.51858e-08
-1.09268e-08
-1.05244e-07
-3.96462e-08
-6.00493e-07
-2.58008e-06
4.74737e-07
1.62559e-06
9.01929e-07
1.60397e-06
1.11236e-06
7.21351e-07
1.00133e-06
1.01421e-07
7.28897e-07
-1.05962e-07
4.91748e-07
-1.51309e-07
3.4323e-07
-1.41551e-07
2.63011e-07
-1.38633e-07
2.06109e-07
-9.88777e-08
1.61753e-07
-8.23246e-08
1.2646e-07
-4.76099e-08
8.91944e-08
-4.10603e-08
8.082e-08
-2.04305e-08
5.10782e-08
-1.74813e-08
7.2835e-08
-4.00067e-10
8.73592e-08
-5.34212e-08
6.16644e-08
7.08806e-08
5.69938e-08
-1.00574e-07
3.55817e-08
-5.79081e-07
-2.5445e-06
5.34668e-07
1.09092e-06
9.93898e-07
1.14474e-06
1.12486e-06
5.90386e-07
1.03331e-06
1.92972e-07
8.7436e-07
5.29895e-08
6.88152e-07
3.48993e-08
5.19043e-07
2.75579e-08
3.69672e-07
1.07383e-08
2.70536e-07
2.58711e-10
2.02521e-07
-1.431e-08
1.76413e-07
-2.15018e-08
1.50567e-07
-1.52144e-08
1.40581e-07
-1.04443e-08
1.25344e-07
-2.24463e-09
8.40502e-08
4.08941e-08
3.04047e-08
2.24325e-10
3.68414e-08
6.44439e-08
-5.96207e-09
-5.77701e-08
-4.17794e-08
-5.43263e-07
-2.58628e-06
7.4368e-07
3.47242e-07
1.01435e-06
8.74066e-07
9.78565e-07
6.26175e-07
8.20963e-07
3.50575e-07
7.15131e-07
1.58822e-07
6.67535e-07
8.24951e-08
5.72429e-07
1.22663e-07
4.59913e-07
1.23255e-07
3.38133e-07
1.22038e-07
2.53264e-07
7.05589e-08
1.73526e-07
5.82362e-08
1.20637e-07
3.76747e-08
6.80078e-08
4.21852e-08
-1.86527e-08
8.44158e-08
4.64244e-08
-2.4183e-08
-6.34578e-09
5.29945e-08
2.26537e-08
3.54444e-08
5.89479e-08
-9.40643e-08
2.4254e-08
-5.08569e-07
-2.56202e-06
5.91585e-07
-2.44343e-07
9.0883e-07
5.56821e-07
9.42318e-07
5.92687e-07
7.00348e-07
5.92545e-07
3.99523e-07
4.59647e-07
1.94086e-07
2.87932e-07
1.09055e-07
2.07695e-07
7.58678e-08
1.56442e-07
9.45946e-08
1.03311e-07
7.27542e-08
9.23993e-08
1.14373e-07
1.66178e-08
3.76201e-08
1.14427e-07
1.30938e-07
-5.11328e-08
1.0842e-07
1.06934e-07
8.88809e-08
-4.644e-09
7.4774e-08
6.71014e-08
1.0098e-07
9.23831e-09
1.13351e-07
-1.06435e-07
-1.01249e-08
-3.85094e-07
-2.57215e-06
2.29282e-07
-4.73625e-07
3.99655e-07
3.86448e-07
5.59465e-07
4.32877e-07
6.87043e-07
4.64967e-07
7.39277e-07
4.07412e-07
7.07296e-07
3.19913e-07
6.74435e-07
2.40556e-07
6.01964e-07
2.28912e-07
5.37517e-07
1.67759e-07
4.45076e-07
1.8484e-07
3.93983e-07
6.77115e-08
3.25768e-07
1.82642e-07
1.97749e-07
7.68863e-08
1.311e-07
1.73583e-07
-1.37088e-07
2.63544e-07
-3.96008e-07
3.26021e-07
-1.54069e-07
-2.32701e-07
-2.95739e-08
-2.3093e-07
2.97235e-08
-4.44391e-07
-2.54243e-06
2.28473e-07
-7.02098e-07
3.11238e-07
3.03683e-07
2.03289e-07
5.40826e-07
1.85652e-07
4.82605e-07
1.61863e-07
4.31201e-07
1.61892e-07
3.19884e-07
6.6373e-08
3.36075e-07
4.46282e-08
2.50657e-07
-5.60797e-08
2.68467e-07
-6.62014e-08
1.94961e-07
-1.5979e-07
1.613e-07
-1.88695e-07
2.11546e-07
-1.90503e-07
7.86941e-08
-2.94817e-07
2.77898e-07
4.20334e-10
-3.16937e-08
1.19998e-07
2.06444e-07
1.90706e-08
-1.31774e-07
-2.00995e-07
-1.08648e-08
-8.3757e-08
-5.61629e-07
-2.62618e-06
1.17087e-08
-7.13807e-07
6.51292e-08
2.50263e-07
1.48915e-07
4.5704e-07
3.29876e-07
3.01644e-07
3.33396e-07
4.27682e-07
3.89827e-07
2.63453e-07
4.06175e-07
3.19727e-07
4.12087e-07
2.44745e-07
4.4654e-07
2.34014e-07
4.36402e-07
2.05099e-07
4.61264e-07
1.36439e-07
3.75834e-07
2.96976e-07
4.62183e-07
-7.65465e-09
3.74419e-07
3.65661e-07
3.07231e-07
3.54943e-08
4.01368e-07
1.12307e-07
2.54356e-07
1.52387e-08
3.82241e-08
2.05267e-07
7.56043e-08
-5.99009e-07
-2.55058e-06
-3.32546e-07
-3.81261e-07
-5.81721e-07
4.99437e-07
-3.70224e-07
2.45543e-07
-3.22177e-07
2.53597e-07
-2.67404e-07
3.72908e-07
-2.25756e-07
2.21805e-07
-1.54821e-07
2.48792e-07
-1.63148e-07
2.53071e-07
-1.02803e-07
1.73669e-07
-9.97951e-08
2.02091e-07
-9.31075e-08
1.29751e-07
2.09774e-08
1.82891e-07
-9.78476e-08
1.1117e-07
-4.85216e-09
2.72666e-07
-7.89853e-08
1.09627e-07
-2.87141e-07
3.20463e-07
1.53082e-07
-4.24984e-07
2.4812e-07
1.10229e-07
4.15271e-08
-3.92416e-07
-2.50905e-06
-4.49967e-08
-3.36264e-07
2.69186e-07
1.85254e-07
2.992e-07
2.15529e-07
2.88064e-07
2.64733e-07
3.70109e-07
2.90863e-07
4.04331e-07
1.87583e-07
4.50298e-07
2.02825e-07
5.14892e-07
1.88478e-07
5.20266e-07
1.68294e-07
5.74408e-07
1.4795e-07
5.28316e-07
1.75842e-07
5.57312e-07
1.53895e-07
5.7851e-07
8.99721e-08
4.93438e-07
3.57738e-07
6.70243e-07
-6.71779e-08
5.55889e-07
4.34817e-07
4.35145e-07
-3.04241e-07
2.78465e-07
2.66909e-07
2.38855e-07
-3.52806e-07
-2.2702e-06
-7.37134e-07
4.0087e-07
-8.54786e-07
3.02907e-07
-8.58486e-07
2.19229e-07
-7.79839e-07
1.86086e-07
-6.81991e-07
1.93015e-07
-6.21973e-07
1.27566e-07
-5.86024e-07
1.66876e-07
-5.28792e-07
1.31245e-07
-4.79479e-07
1.18981e-07
-4.48506e-07
1.16977e-07
-3.72412e-07
9.97479e-08
-3.14217e-07
9.57004e-08
-2.84027e-07
5.97823e-08
-9.86382e-08
1.7235e-07
-2.35478e-07
6.96617e-08
4.83354e-08
1.51004e-07
-2.22706e-07
-3.32e-08
1.02674e-07
-5.84699e-08
7.31689e-07
-9.81821e-07
-1.53851e-06
4.0087e-07
7.03777e-07
9.23006e-07
1.10909e-06
1.30211e-06
1.42967e-06
1.59655e-06
1.72779e-06
1.84678e-06
1.96375e-06
2.0635e-06
2.1592e-06
2.21898e-06
2.39133e-06
2.46099e-06
2.612e-06
2.5788e-06
2.52033e-06
1.53851e-06
)
;

boundaryField
{
    movingWall
    {
        type            calculated;
        value           uniform 0;
    }
    fixedWalls
    {
        type            calculated;
        value           uniform 0;
    }
    frontAndBack
    {
        type            empty;
        value           nonuniform 0();
    }
}


// ************************************************************************* //
