/*--------------------------------*- C++ -*----------------------------------*\
| =========                 |                                                 |
| \\      /  F ield         | OpenFOAM: The Open Source CFD Toolbox           |
|  \\    /   O peration     | Version:  5.x                                   |
|   \\  /    A nd           | Web:      www.OpenFOAM.org                      |
|    \\/     M anipulation  |                                                 |
\*---------------------------------------------------------------------------*/
FoamFile
{
    version     2.0;
    format      ascii;
    class       volScalarField;
    location    "11.4";
    object      p;
}
// * * * * * * * * * * * * * * * * * * * * * * * * * * * * * * * * * * * * * //

dimensions      [0 2 -2 0 0 0 0];

internalField   nonuniform List<scalar> 
400
(
-4.04182e-10
-0.000505528
-0.000850273
-0.00106843
-0.00115035
-0.00120797
-0.00123211
-0.00122941
-0.00124459
-0.00124962
-0.00123181
-0.00121726
-0.00119951
-0.0011831
-0.00119208
-0.00115353
-0.00104056
-0.000788115
-0.000586974
0.000344943
-0.000622397
-0.000909089
-0.00108724
-0.0011675
-0.00121285
-0.00122499
-0.00124657
-0.00123422
-0.00124796
-0.00125223
-0.00123487
-0.00121386
-0.00120407
-0.0011824
-0.00118728
-0.00118632
-0.0012366
-0.00114991
-0.00104562
-0.000397237
-0.000825598
-0.00109945
-0.00117722
-0.00120879
-0.00122883
-0.00123264
-0.00124074
-0.00123612
-0.0012456
-0.00123671
-0.00123816
-0.00121521
-0.00122403
-0.00120266
-0.00121681
-0.00120706
-0.00122362
-0.00117679
-0.00110698
-0.00083606
-0.00106391
-0.00120482
-0.00121697
-0.00122019
-0.00122826
-0.00123157
-0.00123885
-0.0012376
-0.0012416
-0.00123524
-0.00123229
-0.00121756
-0.00121658
-0.00119656
-0.00121527
-0.00119842
-0.00121381
-0.00121161
-0.00124086
-0.00109939
-0.00115305
-0.00119081
-0.00120388
-0.00121014
-0.00122091
-0.0012301
-0.00123781
-0.00123758
-0.00124304
-0.00123224
-0.00123921
-0.00121845
-0.00123081
-0.0012104
-0.00122699
-0.00122316
-0.00123338
-0.00122633
-0.0012176
-0.00115958
-0.00118662
-0.0012032
-0.00121984
-0.00122473
-0.0012327
-0.001239
-0.00124568
-0.00124468
-0.00124661
-0.00123606
-0.00123581
-0.00122098
-0.00122231
-0.0012066
-0.00121488
-0.00120057
-0.00122303
-0.00119219
-0.00122859
-0.00119642
-0.00120348
-0.001207
-0.00119345
-0.00121822
-0.00123477
-0.00124817
-0.00125406
-0.00125449
-0.0012546
-0.00124144
-0.00124493
-0.0012258
-0.00123461
-0.00121689
-0.00123054
-0.00122042
-0.00123196
-0.00122768
-0.00123562
-0.00120725
-0.00119649
-0.00121088
-0.00122135
-0.00125448
-0.00127631
-0.00128761
-0.00128411
-0.00127719
-0.00126654
-0.00124945
-0.00124381
-0.00122573
-0.0012249
-0.00120946
-0.0012169
-0.00119717
-0.00121906
-0.00118652
-0.00121186
-0.00120511
-0.00127285
-0.00130324
-0.00127967
-0.00132198
-0.00134966
-0.00135606
-0.00133535
-0.00131262
-0.00128638
-0.0012654
-0.00125672
-0.00123496
-0.00123669
-0.00121645
-0.00122723
-0.00120798
-0.00122671
-0.00120619
-0.00123171
-0.00119673
-0.00132071
-0.00131471
-0.00134591
-0.00143404
-0.00150824
-0.00152599
-0.00145295
-0.0013738
-0.0013124
-0.00127285
-0.00125561
-0.00122775
-0.00122402
-0.00120483
-0.00121434
-0.00119065
-0.00120805
-0.00116959
-0.00118806
-0.00117833
-0.00133887
-0.0013948
-0.00148715
-0.0016381
-0.0017592
-0.00179806
-0.00167834
-0.00148533
-0.00136003
-0.00129267
-0.00126969
-0.00123928
-0.00123714
-0.00121128
-0.00121881
-0.00118554
-0.0012271
-0.0011788
-0.00122639
-0.00115069
-0.00140703
-0.00147579
-0.00164271
-0.00183367
-0.00201791
-0.00212108
-0.00193117
-0.00158733
-0.00136745
-0.00129035
-0.00126077
-0.0012204
-0.00121562
-0.00121765
-0.0012185
-0.00114207
-0.00117526
-0.00113954
-0.00115049
-0.00114098
-0.00136602
-0.00147468
-0.00166537
-0.00188935
-0.00207193
-0.00215238
-0.00200179
-0.00163655
-0.00139683
-0.00131144
-0.00124173
-0.00121459
-0.001219
-0.00123259
-0.0012406
-0.00114211
-0.0012206
-0.00117616
-0.00121937
-0.00116922
-0.0012142
-0.00135508
-0.0015798
-0.0017738
-0.00194352
-0.00208723
-0.00190574
-0.00153263
-0.00138114
-0.00132277
-0.00129242
-0.00127641
-0.00124251
-0.00121897
-0.00118013
-0.00108033
-0.00115491
-0.0011147
-0.00115724
-0.00115487
-0.000942824
-0.00113103
-0.00136191
-0.00154926
-0.00169601
-0.00177535
-0.00165786
-0.00135764
-0.00119096
-0.00120896
-0.00127173
-0.00128658
-0.00117609
-0.00125581
-0.00117066
-0.00118396
-0.00124642
-0.00117741
-0.00129575
-0.00115584
-0.00071184
-0.000964917
-0.00109597
-0.00121456
-0.00131136
-0.00134077
-0.0013797
-0.00132433
-0.00131782
-0.00131354
-0.00118521
-0.00109408
-0.00106521
-0.00108031
-0.00109729
-0.00104315
-0.00108264
-0.00109146
-0.00107987
-0.00107209
-0.000804321
-0.000945379
-0.000976849
-0.00107764
-0.00111152
-0.00112309
-0.00122525
-0.00126728
-0.00130343
-0.00121607
-0.00120546
-0.0011857
-0.00113904
-0.00123083
-0.00116054
-0.00121072
-0.00133647
-0.00109876
-0.00126495
-0.00101424
-0.000896166
-0.00109329
-0.000971159
-0.00102271
-0.00108724
-0.00112312
-0.00119115
-0.00121866
-0.00122114
-0.00119233
-0.00117135
-0.00112248
-0.00111927
-0.00112339
-0.00112034
-0.00125702
-0.00120481
-0.00098894
-0.00100293
-0.000762016
-0.000905189
-0.00101298
-0.000991317
-0.00103633
-0.0010455
-0.00103361
-0.00110481
-0.00114747
-0.00118693
-0.00120438
-0.00119314
-0.0011521
-0.00121749
-0.00108917
-0.00122781
-0.00120781
-0.00107944
-0.00132504
-0.000958597
-0.000583612
-0.00103773
-0.000967886
-0.000931911
-0.00105712
-0.00106769
-0.00111186
-0.00114992
-0.00116911
-0.00116362
-0.00115282
-0.00113371
-0.00111823
-0.00109928
-0.00108227
-0.00112433
-0.00118608
-0.00113287
-0.000867352
-0.000400668
0.000908769
)
;

boundaryField
{
    movingWall
    {
        type            zeroGradient;
    }
    fixedWalls
    {
        type            zeroGradient;
    }
    frontAndBack
    {
        type            empty;
    }
}


// ************************************************************************* //
