/*--------------------------------*- C++ -*----------------------------------*\
| =========                 |                                                 |
| \\      /  F ield         | OpenFOAM: The Open Source CFD Toolbox           |
|  \\    /   O peration     | Version:  5.x                                   |
|   \\  /    A nd           | Web:      www.OpenFOAM.org                      |
|    \\/     M anipulation  |                                                 |
\*---------------------------------------------------------------------------*/
FoamFile
{
    version     2.0;
    format      ascii;
    class       volScalarField;
    location    "9";
    object      p;
}
// * * * * * * * * * * * * * * * * * * * * * * * * * * * * * * * * * * * * * //

dimensions      [0 2 -2 0 0 0 0];

internalField   nonuniform List<scalar> 
400
(
9.24664e-11
-0.000420782
-0.000848345
-0.00107986
-0.00117319
-0.00121265
-0.00124426
-0.00127839
-0.00122948
-0.00120365
-0.00128485
-0.00125475
-0.00124072
-0.00124885
-0.00123454
-0.0011843
-0.00106753
-0.000855952
-0.000650963
0.000249979
-0.000402723
-0.000732359
-0.00104967
-0.00121602
-0.00125756
-0.00126666
-0.0012755
-0.00132059
-0.00125562
-0.00117991
-0.00128781
-0.00126388
-0.00124592
-0.00125688
-0.00126112
-0.00122812
-0.00121742
-0.0011626
-0.00108225
-0.000474304
-0.000774153
-0.00103285
-0.00129279
-0.00140693
-0.00138354
-0.00132467
-0.00129276
-0.00126793
-0.0012415
-0.0012198
-0.00126213
-0.00124597
-0.00125541
-0.00124563
-0.00125505
-0.00123338
-0.00122792
-0.00120479
-0.00115363
-0.000879936
-0.00115495
-0.00137866
-0.00159913
-0.0016528
-0.00156513
-0.00144024
-0.00136166
-0.00131216
-0.00128737
-0.00124871
-0.00125918
-0.0012501
-0.00124586
-0.00123648
-0.00123778
-0.0012198
-0.00122411
-0.00119992
-0.00123151
-0.00111015
-0.0014893
-0.00168191
-0.00187739
-0.00186249
-0.00171453
-0.00152859
-0.00141171
-0.00133501
-0.00129293
-0.00125853
-0.00125997
-0.0012424
-0.00125178
-0.00123438
-0.00125255
-0.00123139
-0.0012519
-0.00123503
-0.00124525
-0.00117093
-0.00172535
-0.00189171
-0.00207334
-0.00201928
-0.00180845
-0.00158397
-0.00144258
-0.00135091
-0.00130692
-0.0012652
-0.00126341
-0.00123656
-0.00124235
-0.00122074
-0.00122949
-0.00120803
-0.00122555
-0.00118884
-0.00122933
-0.00118965
-0.00177149
-0.00193748
-0.0021073
-0.0020383
-0.00179194
-0.00157137
-0.00143439
-0.00134642
-0.00130524
-0.00126542
-0.00126067
-0.00123745
-0.0012461
-0.0012253
-0.00124589
-0.00121768
-0.00124441
-0.00121121
-0.001245
-0.00119574
-0.00161021
-0.00178631
-0.00194462
-0.00190977
-0.00169493
-0.00151256
-0.00139671
-0.00132313
-0.00128744
-0.00125127
-0.00124617
-0.00122178
-0.00122935
-0.00120629
-0.00122039
-0.00119507
-0.00122273
-0.00118058
-0.00122288
-0.00118982
-0.00134154
-0.00150403
-0.00167087
-0.00166564
-0.00152604
-0.00141186
-0.00133781
-0.00128957
-0.00126478
-0.00124252
-0.00123906
-0.00122304
-0.00123144
-0.00121317
-0.00123394
-0.00120244
-0.00123529
-0.00119614
-0.0012465
-0.00119383
-0.00105627
-0.00120502
-0.00137805
-0.00140698
-0.00135828
-0.00130482
-0.00127101
-0.00124464
-0.00123083
-0.00121312
-0.00121153
-0.00119698
-0.00120618
-0.00118898
-0.00120628
-0.00118324
-0.00121726
-0.00117313
-0.00122518
-0.00118326
-0.000838964
-0.00100411
-0.0011582
-0.0012196
-0.00123353
-0.00123174
-0.00122364
-0.00121785
-0.00121625
-0.00121188
-0.00121137
-0.00120379
-0.00121696
-0.00120158
-0.00122113
-0.00118699
-0.00122448
-0.00117343
-0.00123619
-0.00117503
-0.000757232
-0.000946179
-0.00105686
-0.0011132
-0.00113888
-0.00114754
-0.00116281
-0.00116478
-0.00116685
-0.00116261
-0.00117204
-0.00116638
-0.00117061
-0.00116364
-0.00118523
-0.00116608
-0.00121258
-0.00115894
-0.00121278
-0.00115146
-0.000857972
-0.00101074
-0.0010487
-0.00107924
-0.00110769
-0.00114581
-0.00116728
-0.00117796
-0.00118009
-0.00118561
-0.00118733
-0.00119185
-0.00119939
-0.00118945
-0.00121533
-0.00116547
-0.00120743
-0.00115842
-0.00122331
-0.00113589
-0.000989823
-0.00110466
-0.00104761
-0.00108751
-0.00110996
-0.00112712
-0.00114295
-0.00114369
-0.00114458
-0.0011439
-0.00114928
-0.00115607
-0.00115644
-0.00115241
-0.00113904
-0.00116846
-0.00119828
-0.00110434
-0.00116116
-0.00113586
-0.00105044
-0.00111553
-0.00108355
-0.00108528
-0.00109265
-0.00109815
-0.00111074
-0.0011231
-0.00113798
-0.00115117
-0.00115456
-0.00118456
-0.0011554
-0.00120165
-0.00120837
-0.00119223
-0.00125827
-0.00117843
-0.00127385
-0.00116722
-0.00123575
-0.00116378
-0.00111593
-0.00111302
-0.00111502
-0.00109697
-0.00113134
-0.00111767
-0.00113953
-0.00113531
-0.00114762
-0.00114842
-0.00115358
-0.00118977
-0.00115987
-0.00114935
-0.00114981
-0.00115471
-0.00118524
-0.00112828
-0.00100816
-0.0011483
-0.00111211
-0.00109477
-0.00110406
-0.00109656
-0.00111286
-0.00110528
-0.00113955
-0.00112608
-0.00117469
-0.00114838
-0.00115866
-0.00119043
-0.00112642
-0.00122611
-0.00124983
-0.00115738
-0.00126744
-0.0010608
-0.000981128
-0.00113497
-0.00111518
-0.001097
-0.00109304
-0.00109418
-0.00110512
-0.00111604
-0.00112617
-0.0011307
-0.00114205
-0.00111386
-0.00115052
-0.0011409
-0.00116603
-0.0012441
-0.00119437
-0.0010731
-0.0010336
-0.000887217
-0.000957086
-0.00108691
-0.00111387
-0.00111374
-0.00109215
-0.00108036
-0.00110321
-0.00111034
-0.00111645
-0.00113145
-0.00116024
-0.00111992
-0.00119361
-0.00112878
-0.00118804
-0.00122895
-0.00115138
-0.00128779
-0.00103901
-0.000627038
-0.00110274
-0.00109009
-0.0010491
-0.00109235
-0.00107066
-0.00108086
-0.00110074
-0.00110719
-0.00110892
-0.00113082
-0.00111571
-0.00112028
-0.00111629
-0.00108585
-0.00113525
-0.00115242
-0.0011557
-0.000932913
-0.000451728
0.000784126
)
;

boundaryField
{
    movingWall
    {
        type            zeroGradient;
    }
    fixedWalls
    {
        type            zeroGradient;
    }
    frontAndBack
    {
        type            empty;
    }
}


// ************************************************************************* //
