/*--------------------------------*- C++ -*----------------------------------*\
| =========                 |                                                 |
| \\      /  F ield         | OpenFOAM: The Open Source CFD Toolbox           |
|  \\    /   O peration     | Version:  5.x                                   |
|   \\  /    A nd           | Web:      www.OpenFOAM.org                      |
|    \\/     M anipulation  |                                                 |
\*---------------------------------------------------------------------------*/
FoamFile
{
    version     2.0;
    format      ascii;
    class       surfaceScalarField;
    location    "9";
    object      phi;
}
// * * * * * * * * * * * * * * * * * * * * * * * * * * * * * * * * * * * * * //

dimensions      [0 3 -1 0 0 0 0];

internalField   nonuniform List<scalar> 
760
(
-9.8761e-07
9.8761e-07
-1.68333e-06
6.95725e-07
-2.02444e-06
3.41108e-07
-2.1296e-06
1.05161e-07
-2.1775e-06
4.78996e-08
-2.20697e-06
2.9462e-08
-2.31973e-06
1.12764e-07
-2.33113e-06
1.14031e-08
-2.21494e-06
-1.16194e-07
-2.32905e-06
1.14111e-07
-2.39511e-06
6.60591e-08
-2.33402e-06
-6.1092e-08
-2.38527e-06
5.12517e-08
-2.35289e-06
-3.23792e-08
-2.35001e-06
-2.87624e-09
-2.28264e-06
-6.73749e-08
-2.20895e-06
-7.36916e-08
-1.8926e-06
-3.16343e-07
-1.23512e-06
-6.57484e-07
-1.23512e-06
-6.24669e-07
1.61228e-06
-1.1506e-06
1.22165e-06
-1.44547e-06
6.35983e-07
-1.48395e-06
1.43635e-07
-1.33664e-06
-9.94087e-08
-1.19194e-06
-1.15238e-07
-9.96275e-07
-8.28978e-08
-9.28492e-07
-5.63802e-08
-9.83276e-07
-6.14102e-08
-9.03558e-07
3.43927e-08
-9.01033e-07
6.35342e-08
-9.56792e-07
-5.33288e-09
-9.66716e-07
6.11753e-08
-9.56595e-07
-4.25001e-08
-9.89032e-07
2.95609e-08
-9.57612e-07
-9.87949e-08
-9.90023e-07
-4.12811e-08
-1.03301e-06
-2.73352e-07
-8.98683e-07
-7.91815e-07
-2.1338e-06
-5.20265e-07
2.13254e-06
-9.39971e-07
1.64136e-06
-1.1811e-06
8.77109e-07
-1.20268e-06
1.65217e-07
-1.04114e-06
-2.60946e-07
-8.31863e-07
-3.24517e-07
-6.37045e-07
-2.77716e-07
-4.94794e-07
-1.9863e-07
-3.93109e-07
-1.63095e-07
-2.80751e-07
-7.79661e-08
-2.07977e-07
-9.23928e-09
-1.7285e-07
-4.04598e-08
-1.30592e-07
1.89171e-08
-1.31589e-07
-4.15029e-08
-1.0518e-07
3.15124e-09
-8.87652e-08
-1.15209e-07
-7.8526e-08
-5.15203e-08
-1.03593e-07
-2.48285e-07
-2.25327e-07
-6.70081e-07
-2.35913e-06
-3.88227e-07
2.52077e-06
-7.07733e-07
1.96086e-06
-9.05371e-07
1.07475e-06
-9.07589e-07
1.67435e-07
-7.51347e-07
-4.17188e-07
-5.624e-07
-5.13464e-07
-4.0231e-07
-4.37807e-07
-2.71131e-07
-3.29809e-07
-2.03365e-07
-2.30862e-07
-1.32177e-07
-1.49153e-07
-7.78297e-08
-6.35869e-08
-5.37911e-08
-6.44984e-08
-4.00731e-08
5.19906e-09
-3.98592e-08
-4.17168e-08
-6.76074e-08
3.08995e-08
-1.06585e-07
-7.6232e-08
-1.60589e-07
2.48419e-09
-1.97723e-07
-2.11152e-07
-1.56171e-07
-7.11633e-07
-2.5153e-06
-2.82409e-07
2.80318e-06
-5.0068e-07
2.17914e-06
-6.16966e-07
1.19103e-06
-5.74469e-07
1.24937e-07
-4.67347e-07
-5.2431e-07
-3.56069e-07
-6.24742e-07
-2.7539e-07
-5.18486e-07
-2.18362e-07
-3.86837e-07
-1.79983e-07
-2.69241e-07
-1.30161e-07
-1.98976e-07
-8.01072e-08
-1.1364e-07
-4.20913e-08
-1.02514e-07
1.8465e-09
-3.87388e-08
3.33657e-08
-7.3236e-08
5.50733e-08
9.19189e-09
7.63588e-08
-9.75175e-08
5.95796e-08
1.92634e-08
3.56254e-08
-1.87197e-07
-1.31147e-08
-6.62893e-07
-2.52841e-06
-1.03736e-07
2.90692e-06
-1.90598e-07
2.266e-06
-2.16937e-07
1.21737e-06
-1.63813e-07
7.18133e-08
-1.1169e-07
-5.76433e-07
-7.83716e-08
-6.5806e-07
-4.67693e-08
-5.50088e-07
-2.78232e-08
-4.05783e-07
-4.00003e-09
-2.93064e-07
-2.96344e-10
-2.0268e-07
1.46269e-08
-1.28564e-07
1.52885e-08
-1.03176e-07
1.89395e-08
-4.23898e-08
1.10801e-08
-6.53766e-08
1.84532e-08
1.81878e-09
-7.66992e-09
-7.13944e-08
9.95486e-09
1.63865e-09
1.60403e-09
-1.78847e-07
-1.03287e-10
-6.61186e-07
-2.52852e-06
1.5816e-07
2.74876e-06
1.35607e-07
2.28855e-06
1.8103e-07
1.17195e-06
2.49929e-07
2.91438e-09
2.33376e-07
-5.59879e-07
1.93288e-07
-6.17972e-07
1.44878e-07
-5.01678e-07
1.09199e-07
-3.70103e-07
8.18138e-08
-2.65679e-07
7.10778e-08
-1.91944e-07
6.76171e-08
-1.25103e-07
6.87729e-08
-1.04332e-07
6.91329e-08
-4.27497e-08
7.33688e-08
-6.96125e-08
6.49444e-08
1.02432e-08
5.94292e-08
-6.58792e-08
3.6418e-08
2.46499e-08
4.07707e-09
-1.46506e-07
-1.88289e-08
-6.3828e-07
-2.54735e-06
3.59476e-07
2.38928e-06
4.6563e-07
2.1824e-06
6.20749e-07
1.01683e-06
6.51831e-07
-2.81677e-08
5.34885e-07
-4.42934e-07
3.84426e-07
-4.67513e-07
2.57295e-07
-3.74548e-07
1.78439e-07
-2.91247e-07
1.26977e-07
-2.14217e-07
9.69679e-08
-1.61934e-07
7.55061e-08
-1.03641e-07
5.96628e-08
-8.84884e-08
5.28057e-08
-3.58927e-08
4.14602e-08
-5.8267e-08
4.41116e-08
7.59179e-09
3.14128e-08
-5.31803e-08
2.70384e-08
2.90243e-08
2.45548e-08
-1.44022e-07
1.6366e-08
-6.30091e-07
-2.53098e-06
3.80612e-07
2.00867e-06
6.96746e-07
1.86626e-06
9.2953e-07
7.84046e-07
9.01841e-07
-4.7844e-10
7.53319e-07
-2.94412e-07
5.88058e-07
-3.02252e-07
4.43229e-07
-2.29719e-07
3.32298e-07
-1.80316e-07
2.46087e-07
-1.28006e-07
1.92228e-07
-1.08075e-07
1.54984e-07
-6.63972e-08
1.33303e-07
-6.68078e-08
1.14336e-07
-1.6925e-08
9.51017e-08
-3.90329e-08
7.38172e-08
2.88763e-08
5.15504e-08
-3.09135e-08
3.03471e-08
5.02276e-08
-1.30316e-08
-1.00643e-07
-4.29282e-08
-6.00194e-07
-2.57391e-06
4.77788e-07
1.53088e-06
9.71643e-07
1.37241e-06
1.12634e-06
6.29354e-07
9.75119e-07
1.50738e-07
7.07192e-07
-2.6485e-08
4.9071e-07
-8.57696e-08
3.53713e-07
-9.27222e-08
2.74452e-07
-1.01055e-07
2.15185e-07
-6.87392e-08
1.6746e-07
-6.03505e-08
1.30711e-07
-2.96474e-08
9.24121e-08
-2.85092e-08
8.37354e-08
-8.24841e-09
5.39987e-08
-9.29622e-09
7.14858e-08
1.13892e-08
8.47657e-08
-4.41934e-08
6.00813e-08
7.4912e-08
5.41016e-08
-9.46637e-08
3.12938e-08
-5.77386e-07
-2.54261e-06
5.62525e-07
9.68355e-07
9.69547e-07
9.65384e-07
1.05779e-06
5.41115e-07
9.67779e-07
2.40745e-07
8.20229e-07
1.21065e-07
6.46897e-07
8.75623e-08
4.90067e-07
6.41081e-08
3.53491e-07
3.55209e-08
2.65298e-07
1.94542e-08
2.01536e-07
3.41071e-09
1.75424e-07
-3.53537e-09
1.49457e-07
-2.54168e-09
1.38575e-07
2.63378e-09
1.2425e-07
5.0282e-09
8.61093e-08
4.95301e-08
3.37278e-08
8.18811e-09
3.8493e-08
7.01468e-08
-5.33131e-09
-5.08394e-08
-4.10042e-08
-5.41713e-07
-2.58362e-06
7.26255e-07
2.42101e-07
9.16742e-07
7.74897e-07
8.696e-07
5.88258e-07
7.47805e-07
3.6254e-07
6.7e-07
1.9887e-07
6.27886e-07
1.29676e-07
5.35928e-07
1.56067e-07
4.30796e-07
1.40653e-07
3.17635e-07
1.32616e-07
2.40724e-07
8.03217e-08
1.67444e-07
6.97448e-08
1.17816e-07
4.70858e-08
6.79097e-08
5.25402e-08
-1.68986e-08
8.98365e-08
4.47791e-08
-1.21476e-08
-7.11273e-09
6.008e-08
2.17251e-08
4.13089e-08
5.57279e-08
-8.48422e-08
2.20777e-08
-5.08063e-07
-2.56154e-06
5.48057e-07
-3.05956e-07
8.11039e-07
5.11914e-07
8.28619e-07
5.70678e-07
6.01619e-07
5.8954e-07
3.38633e-07
4.61856e-07
1.6878e-07
2.99529e-07
1.02177e-07
2.22669e-07
7.46939e-08
1.68136e-07
9.39398e-08
1.1337e-07
7.35543e-08
1.00707e-07
1.13993e-07
2.93063e-08
4.17938e-08
1.19285e-07
1.32525e-07
-3.81914e-08
1.10946e-07
1.11415e-07
9.21114e-08
6.68739e-09
7.76824e-08
7.45089e-08
1.02025e-07
1.69664e-08
1.09164e-07
-9.19816e-08
-1.20859e-08
-3.86813e-07
-2.57363e-06
1.939e-07
-4.99857e-07
3.44381e-07
3.61433e-07
5.03853e-07
4.11206e-07
6.43799e-07
4.49593e-07
7.05958e-07
3.99697e-07
6.81251e-07
3.24236e-07
6.50749e-07
2.53171e-07
5.77026e-07
2.41859e-07
5.09949e-07
1.80448e-07
4.18861e-07
1.91795e-07
3.6711e-07
8.10572e-08
3.00992e-07
1.85402e-07
1.78529e-07
8.4272e-08
1.1603e-07
1.73914e-07
-1.36751e-07
2.59468e-07
-3.88853e-07
3.26611e-07
-1.46951e-07
-2.24935e-07
-2.16101e-08
-2.17323e-07
3.35068e-08
-4.4193e-07
-2.54012e-06
2.14109e-07
-7.13966e-07
2.77877e-07
2.97666e-07
1.62377e-07
5.26707e-07
1.47147e-07
4.64823e-07
1.24156e-07
4.22688e-07
1.2876e-07
3.19631e-07
4.00368e-08
3.41895e-07
2.3914e-08
2.57982e-07
-6.73452e-08
2.71707e-07
-7.3973e-08
1.98423e-07
-1.58357e-07
1.65441e-07
-1.87752e-07
2.14797e-07
-1.86049e-07
8.25696e-08
-2.91747e-07
2.79612e-07
1.46373e-09
-3.37422e-08
1.19888e-07
2.08187e-07
1.78263e-08
-1.22873e-07
-1.89566e-07
-9.93056e-09
-7.96674e-08
-5.51828e-07
-2.61979e-06
1.40869e-08
-7.28053e-07
5.42653e-08
2.57488e-07
1.30881e-07
4.5009e-07
3.08891e-07
2.86814e-07
3.10005e-07
4.21575e-07
3.65505e-07
2.64131e-07
3.91637e-07
3.15763e-07
4.02179e-07
2.4744e-07
4.44171e-07
2.29714e-07
4.35216e-07
2.07378e-07
4.64496e-07
1.36161e-07
3.81621e-07
2.97672e-07
4.69466e-07
-5.27531e-09
3.78061e-07
3.71016e-07
3.06169e-07
3.81498e-08
3.8871e-07
1.25645e-07
2.35602e-07
3.02355e-08
3.91585e-08
1.86513e-07
7.60801e-08
-5.8875e-07
-2.54371e-06
-3.43965e-07
-3.84088e-07
-5.91274e-07
5.04796e-07
-3.78935e-07
2.37752e-07
-3.36705e-07
2.44583e-07
-2.82088e-07
3.66959e-07
-2.4102e-07
2.23063e-07
-1.70873e-07
2.45615e-07
-1.75511e-07
2.52079e-07
-1.21503e-07
1.75706e-07
-1.14251e-07
2.00126e-07
-1.10023e-07
1.31933e-07
2.01671e-09
1.85633e-07
-1.11203e-07
1.07944e-07
-1.99023e-08
2.79716e-07
-8.432e-08
1.02568e-07
-2.82546e-07
3.23871e-07
1.57943e-07
-4.10254e-07
2.38467e-07
1.05988e-07
4.00429e-08
-3.90326e-07
-2.50366e-06
-4.70599e-08
-3.37028e-07
2.72231e-07
1.85505e-07
2.94881e-07
2.15102e-07
2.81148e-07
2.58316e-07
3.62134e-07
2.85973e-07
3.94136e-07
1.9106e-07
4.40919e-07
1.98833e-07
5.07159e-07
1.85839e-07
5.10354e-07
1.72511e-07
5.65979e-07
1.44501e-07
5.19149e-07
1.78763e-07
5.50142e-07
1.5464e-07
5.71632e-07
8.64548e-08
4.91434e-07
3.59914e-07
6.63127e-07
-6.91262e-08
5.49776e-07
4.37222e-07
4.40676e-07
-3.01153e-07
2.72406e-07
2.74258e-07
2.36723e-07
-3.54643e-07
-2.26694e-06
-7.37823e-07
4.00795e-07
-8.54675e-07
3.02357e-07
-8.59726e-07
2.20152e-07
-7.85725e-07
1.84316e-07
-6.85667e-07
1.85915e-07
-6.27359e-07
1.32752e-07
-5.93255e-07
1.64729e-07
-5.32102e-07
1.24686e-07
-4.85291e-07
1.257e-07
-4.5313e-07
1.12339e-07
-3.74626e-07
1.00259e-07
-3.18927e-07
9.89412e-08
-2.8904e-07
5.65675e-08
-1.025e-07
1.73374e-07
-2.44473e-07
7.28466e-08
4.28718e-08
1.49877e-07
-2.21171e-07
-3.71099e-08
1.08548e-07
-5.54616e-08
7.31442e-07
-9.77537e-07
-1.5355e-06
4.00795e-07
7.03151e-07
9.23304e-07
1.10762e-06
1.29354e-06
1.42629e-06
1.59102e-06
1.7157e-06
1.8414e-06
1.95374e-06
2.054e-06
2.15294e-06
2.20951e-06
2.38288e-06
2.45573e-06
2.60561e-06
2.5685e-06
2.51304e-06
1.5355e-06
)
;

boundaryField
{
    movingWall
    {
        type            calculated;
        value           uniform 0;
    }
    fixedWalls
    {
        type            calculated;
        value           uniform 0;
    }
    frontAndBack
    {
        type            empty;
        value           nonuniform 0();
    }
}


// ************************************************************************* //
