/*--------------------------------*- C++ -*----------------------------------*\
| =========                 |                                                 |
| \\      /  F ield         | OpenFOAM: The Open Source CFD Toolbox           |
|  \\    /   O peration     | Version:  5.x                                   |
|   \\  /    A nd           | Web:      www.OpenFOAM.org                      |
|    \\/     M anipulation  |                                                 |
\*---------------------------------------------------------------------------*/
FoamFile
{
    version     2.0;
    format      ascii;
    class       volVectorField;
    location    "9";
    object      U;
}
// * * * * * * * * * * * * * * * * * * * * * * * * * * * * * * * * * * * * * //

dimensions      [0 1 -1 0 0 0 0];

internalField   nonuniform List<vector> 
400
(
(-0.0115647 0.00950447 0)
(-0.0307441 0.00460534 0)
(-0.0394227 0.000890069 0)
(-0.0410822 -0.000160241 0)
(-0.0419837 0.000844191 0)
(-0.0438432 -0.000707203 0)
(-0.0428057 0.00204437 0)
(-0.051025 -0.00194028 0)
(-0.042958 -0.00742955 0)
(-0.0432907 0.00160864 0)
(-0.0518659 -0.000682452 0)
(-0.0444271 -0.00458515 0)
(-0.0481735 -0.000615855 0)
(-0.0474558 -0.00184872 0)
(-0.0479891 -0.00200808 0)
(-0.0468893 -0.0024919 0)
(-0.0456155 -0.00298914 0)
(-0.040631 -0.00573212 0)
(-0.0402204 -0.00992578 0)
(-0.00290896 -0.0160306 0)
(-0.00658989 0.0271087 0)
(-0.0204654 0.0210778 0)
(-0.0275497 0.0116682 0)
(-0.0301212 0.00396202 0)
(-0.0274165 0.000896737 0)
(-0.0251574 0.00175516 0)
(-0.0212108 0.00226841 0)
(-0.0195965 0.00216403 0)
(-0.0182875 0.00233326 0)
(-0.0188477 0.00335912 0)
(-0.0193938 0.00336262 0)
(-0.016899 0.00192273 0)
(-0.0206251 0.00260317 0)
(-0.0176576 0.000438069 0)
(-0.0216378 0.00183483 0)
(-0.0167912 -0.000537609 0)
(-0.0226616 -0.000612143 0)
(-0.0161677 -0.0088187 0)
(-0.0283748 -0.0195895 0)
(-0.00306166 -0.0384419 0)
(-0.00507646 0.0368592 0)
(-0.0173902 0.0278391 0)
(-0.021987 0.0138699 0)
(-0.02463 0.00178312 0)
(-0.0218753 -0.00490723 0)
(-0.0184981 -0.00599718 0)
(-0.0144142 -0.00530228 0)
(-0.0110798 -0.0039685 0)
(-0.00913301 -0.00440761 0)
(-0.00589961 -0.00219077 0)
(-0.00610871 -0.000659562 0)
(-0.00170786 -0.00206714 0)
(-0.00557659 -0.000235906 0)
(0.000685599 -0.0020262 0)
(-0.0063282 -0.00053636 0)
(0.00244268 -0.00320492 0)
(-0.00623968 -0.000716371 0)
(0.00302885 -0.00102849 0)
(-0.00780905 -0.00968688 0)
(0.000292134 -0.044475 0)
(-0.0033778 0.046551 0)
(-0.0134981 0.035874 0)
(-0.0164008 0.0197675 0)
(-0.0189857 0.00424892 0)
(-0.0159376 -0.00624194 0)
(-0.0129466 -0.00776578 0)
(-0.00962738 -0.00642912 0)
(-0.00630946 -0.00464934 0)
(-0.00504228 -0.00272453 0)
(-0.00261141 -0.00110016 0)
(-0.00305448 0.000234045 0)
(4.97112e-05 0.000279016 0)
(-0.00230133 0.00110496 0)
(0.000817527 0.000429228 0)
(-0.00256857 0.000717568 0)
(9.98232e-05 -0.00109167 0)
(-0.00468903 -0.00112852 0)
(-0.00121597 -0.00824813 0)
(-0.0075992 -0.0180667 0)
(0.0022742 -0.0492515 0)
(-0.00209102 0.0524491 0)
(-0.010235 0.0411672 0)
(-0.0112509 0.022221 0)
(-0.0124491 0.00230549 0)
(-0.00952355 -0.0106274 0)
(-0.00818622 -0.0126203 0)
(-0.00645404 -0.010833 0)
(-0.00470117 -0.00831217 0)
(-0.00440085 -0.00602487 0)
(-0.00248125 -0.00459894 0)
(-0.00309043 -0.00271038 0)
(0.000143727 -0.00272366 0)
(-0.00203648 -0.000953903 0)
(0.00215885 -0.00221708 0)
(-0.00104824 0.000310247 0)
(0.00354973 -0.00225688 0)
(-0.000839881 0.00116221 0)
(0.00349759 -0.000907762 0)
(-0.00235325 -0.0097313 0)
(0.00203231 -0.0488681 0)
(-0.000719601 0.0587962 0)
(-0.00394748 0.0453843 0)
(-0.00459946 0.0245055 0)
(-0.00359654 0.00223999 0)
(-0.00234403 -0.0109048 0)
(-0.00172783 -0.0125725 0)
(-0.00158804 -0.0102743 0)
(-0.000276482 -0.00740069 0)
(-0.000986641 -0.00513086 0)
(0.000870438 -0.00348622 0)
(-0.000914781 -0.00196804 0)
(0.00163555 -0.00132532 0)
(-0.00116292 -0.000451159 0)
(0.00207121 -0.000509668 0)
(-0.00174769 0.000177891 0)
(0.00264825 -0.00128535 0)
(-0.00307187 -0.000195647 0)
(0.00363363 -0.00583559 0)
(-0.00364813 -0.0159074 0)
(0.0037039 -0.0509563 0)
(0.0031069 0.0588917 0)
(0.00245371 0.0463394 0)
(0.0021157 0.0248212 0)
(0.00562151 0.000684356 0)
(0.00546667 -0.0114644 0)
(0.00443334 -0.0132083 0)
(0.00292299 -0.0112676 0)
(0.00281592 -0.00862178 0)
(0.00121816 -0.00639119 0)
(0.00230271 -0.00481593 0)
(0.000258274 -0.00327249 0)
(0.00270713 -0.00301061 0)
(-0.000246677 -0.00140917 0)
(0.00332454 -0.00233372 0)
(-0.000751456 -0.000162893 0)
(0.00371469 -0.00187116 0)
(-0.00170513 0.000205897 0)
(0.00346568 -0.00197277 0)
(-0.00341543 -0.011458 0)
(0.00288211 -0.049838 0)
(0.00636456 0.0533791 0)
(0.00686648 0.0471271 0)
(0.010438 0.023408 0)
(0.0150086 -0.000536148 0)
(0.0127243 -0.010516 0)
(0.00930648 -0.0111282 0)
(0.00571117 -0.00853252 0)
(0.00462258 -0.00593204 0)
(0.00214282 -0.00402019 0)
(0.00322265 -0.00258733 0)
(0.000341479 -0.00151999 0)
(0.00295832 -0.000903529 0)
(-0.000847025 -0.000121978 0)
(0.00322915 -0.00019328 0)
(-0.00182574 0.000703522 0)
(0.00387717 -0.000482361 0)
(-0.00289997 0.000972328 0)
(0.00427146 -0.00335138 0)
(-0.00357009 -0.0130755 0)
(0.00441431 -0.0511147 0)
(0.00556549 0.0441705 0)
(0.00862162 0.0423806 0)
(0.017639 0.0186685 0)
(0.0204951 -0.000356324 0)
(0.0171141 -0.00643082 0)
(0.0135367 -0.00706965 0)
(0.00994958 -0.00627473 0)
(0.007938 -0.00583569 0)
(0.00500334 -0.0047192 0)
(0.00511991 -0.00416904 0)
(0.00222533 -0.00285759 0)
(0.00431173 -0.00291065 0)
(0.000652258 -0.00149134 0)
(0.00430727 -0.00239136 0)
(-0.000917569 -0.000514286 0)
(0.00428403 -0.00188675 0)
(-0.00259579 -5.62162e-06 0)
(0.00412181 -0.00289902 0)
(-0.00486764 -0.0131369 0)
(0.00351559 -0.0509067 0)
(0.00391384 0.0375693 0)
(0.0141048 0.0335724 0)
(0.0230548 0.0135666 0)
(0.0229034 0.000380076 0)
(0.0170971 -0.00492013 0)
(0.0117213 -0.00457521 0)
(0.00768192 -0.00258363 0)
(0.00669702 -0.00106744 0)
(0.00399234 -0.000136084 0)
(0.00490865 0.000158962 0)
(0.00147483 0.000448283 0)
(0.00406224 0.000517995 0)
(-0.000664424 0.000955006 0)
(0.0043312 0.001056 0)
(-0.00245631 0.00189185 0)
(0.00568828 0.000821508 0)
(-0.00277487 0.00225097 0)
(0.00563457 -0.000778367 0)
(-0.00392199 -0.00996178 0)
(0.0054625 -0.0513068 0)
(0.0049149 0.0238421 0)
(0.0161575 0.0211345 0)
(0.0218966 0.0115071 0)
(0.0210961 0.00548374 0)
(0.0180527 0.00380415 0)
(0.0150646 0.000887715 0)
(0.0111184 -0.001357 0)
(0.00866993 -0.00325951 0)
(0.00528245 -0.0028714 0)
(0.0055544 -0.00286692 0)
(0.00224123 -0.00183284 0)
(0.0050989 -0.00186758 0)
(0.000508045 -0.0014034 0)
(0.00544881 -0.00155132 0)
(-0.00094636 -0.00158717 0)
(0.00485479 -0.00279081 0)
(-0.00383547 0.0004885 0)
(0.00577026 -0.00327435 0)
(-0.00614242 -0.0140086 0)
(0.00489153 -0.0514209 0)
(0.00819098 0.0154744 0)
(0.0189067 0.0168573 0)
(0.0186234 0.00964265 0)
(0.0161185 0.00393256 0)
(0.0140676 0.00136809 0)
(0.0132559 0.00304196 0)
(0.0114196 0.00425508 0)
(0.0103804 0.00494837 0)
(0.00658935 0.0038542 0)
(0.00644677 0.00309969 0)
(0.00285798 0.00176219 0)
(0.00411816 0.00183139 0)
(0.000354346 0.00159603 0)
(0.00259563 0.00186311 0)
(-0.00342411 0.00391235 0)
(0.00552251 0.00320842 0)
(-0.00596093 0.0025099 0)
(0.00712977 0.00141085 0)
(-0.00539729 -0.00678088 0)
(0.00655843 -0.0507067 0)
(0.00385964 -0.0065956 0)
(0.0163888 0.0130549 0)
(0.0173508 0.0129157 0)
(0.0155494 0.0101659 0)
(0.0087264 0.00622554 0)
(0.00443205 0.0016198 0)
(0.00247403 0.00143641 0)
(0.00159033 0.000108024 0)
(0.00152354 0.000905781 0)
(0.00213384 -0.000359825 0)
(0.000905093 0.000622235 0)
(0.00371094 -0.000300534 0)
(-0.00217367 0.000107897 0)
(0.00784886 0.00125185 0)
(-0.00390718 -0.0045973 0)
(0.0081472 -0.000959265 0)
(-0.00557308 -0.000955387 0)
(0.0103007 -0.00513907 0)
(-0.00669454 -0.0145989 0)
(0.00645357 -0.0516543 0)
(-0.00129622 -0.00640694 0)
(0.00801565 0.00637684 0)
(0.0071007 0.0105497 0)
(0.0119875 0.0126441 0)
(0.0141688 0.0115629 0)
(0.0142721 0.0105204 0)
(0.0126373 0.00775942 0)
(0.0138161 0.00707166 0)
(0.00908004 0.00405035 0)
(0.011588 0.00486795 0)
(0.00494919 0.000794263 0)
(0.00967166 0.00562089 0)
(0.00231357 -0.00134794 0)
(0.0047116 0.0037811 0)
(0.000265842 0.00505312 0)
(-0.00606048 0.00411283 0)
(-0.010479 0.00179514 0)
(0.00549498 0.00202895 0)
(-0.00667288 0.000511093 0)
(0.00828259 -0.0504131 0)
(-0.0032433 -0.0121761 0)
(0.0109925 0.00902756 0)
(0.000946749 0.00533918 0)
(0.00527433 0.00595681 0)
(0.000472872 0.00511198 0)
(0.00462118 0.00294009 0)
(0.000444576 0.002923 0)
(0.00116763 0.00246296 0)
(-0.000235321 0.00288706 0)
(-0.00257919 0.00227502 0)
(-0.000141237 0.00214566 0)
(-0.00671232 0.00110622 0)
(-9.23794e-05 0.00445023 0)
(-0.00799457 0.00246568 0)
(-0.00367009 0.00416272 0)
(0.00378462 0.00819736 0)
(0.000270758 -0.0118192 0)
(0.000780093 -0.0117006 0)
(-0.0095523 -0.0200065 0)
(0.00706383 -0.0534436 0)
(-0.00234282 -0.0191573 0)
(0.00307286 0.00209194 0)
(-0.000752896 0.0151972 0)
(0.00566906 0.0118153 0)
(0.00628733 0.011021 0)
(0.00677913 0.00950795 0)
(0.00699693 0.00997114 0)
(0.00946639 0.00756563 0)
(0.00592586 0.00776164 0)
(0.0124485 0.00601024 0)
(0.00447468 0.00485492 0)
(0.0144947 0.0081378 0)
(0.00121144 -0.00106327 0)
(0.0166096 0.00933596 0)
(-0.000680624 -0.00521227 0)
(0.0129053 0.00100774 0)
(0.00233845 0.00786035 0)
(0.00741696 0.0114596 0)
(-0.00614905 -4.54897e-05 0)
(0.0096605 -0.0497875 0)
(-0.000775067 -0.00697398 0)
(-0.014468 0.00877028 0)
(-0.00764433 0.00338916 0)
(-0.00760861 0.00025772 0)
(-0.00640545 0.00636208 0)
(-0.00438936 0.000868224 0)
(-0.00574013 0.00320161 0)
(-0.000612523 0.00271335 0)
(-0.00697343 0.00121167 0)
(0.00263664 0.00237087 0)
(-0.00777088 9.16561e-05 0)
(0.00387798 0.00313694 0)
(-0.00381288 0.000805593 0)
(-0.00114578 0.00483989 0)
(0.000678045 0.00694979 0)
(-0.00468823 0.00334395 0)
(-0.00705973 -0.00712627 0)
(0.0143798 -0.00463477 0)
(-0.00640715 -0.0258913 0)
(0.00865511 -0.0539075 0)
(-0.00519007 -0.00961465 0)
(0.00275119 0.0109392 0)
(0.00911754 0.0059405 0)
(0.00293513 0.00946798 0)
(0.00806925 0.00853081 0)
(0.0066553 0.00788468 0)
(0.00881177 0.00650394 0)
(0.00891228 0.00692003 0)
(0.0111335 0.00606005 0)
(0.00964197 0.00538101 0)
(0.012295 0.00572361 0)
(0.00949261 0.00480895 0)
(0.0114251 0.00388886 0)
(0.0123793 0.00704639 0)
(0.00768689 -0.00327396 0)
(0.017312 0.0100277 0)
(0.00546259 -0.00813645 0)
(0.0133017 0.00977361 0)
(-0.00340063 0.0123555 0)
(0.0139573 -0.0458047 0)
(-0.0195733 -0.00281788 0)
(-0.0117851 -0.00295748 0)
(-0.0212748 0.00216405 0)
(-0.0128051 0.00035966 0)
(-0.0178882 0.00248932 0)
(-0.00903341 7.06893e-05 0)
(-0.0168485 0.00137421 0)
(-0.00646539 0.000772508 0)
(-0.0149294 0.000798442 0)
(-0.0041555 0.00038523 0)
(-0.0148207 0.000789806 0)
(0.000992389 0.00100071 0)
(-0.0150134 -0.00097422 0)
(0.00468444 0.00666295 0)
(-0.00932795 0.000225824 0)
(-0.00115148 0.00690382 0)
(0.00339727 -0.00343833 0)
(-0.0138679 -0.000984049 0)
(0.0189033 -0.0289691 0)
(0.0132536 -0.0517866 0)
(-0.000220599 0.0172662 0)
(0.0162434 0.0144815 0)
(0.0131297 0.00739097 0)
(0.022104 0.00746295 0)
(0.0237922 0.00535027 0)
(0.0268824 0.00503183 0)
(0.0302037 0.00519154 0)
(0.0342276 0.00433038 0)
(0.0338775 0.00430239 0)
(0.0392563 0.00419295 0)
(0.0400066 0.00368523 0)
(0.0408773 0.00293929 0)
(0.0461236 0.00370795 0)
(0.0441167 0.000774241 0)
(0.0489723 0.00312109 0)
(0.049645 -0.00026296 0)
(0.0512144 0.00175565 0)
(0.0516036 -0.000223626 0)
(0.0439475 -0.0053383 0)
(0.0252738 -0.000780603 0)
)
;

boundaryField
{
    movingWall
    {
        type            fixedValue;
        value           uniform (1 0 0);
    }
    fixedWalls
    {
        type            noSlip;
    }
    frontAndBack
    {
        type            empty;
    }
}


// ************************************************************************* //
