/*--------------------------------*- C++ -*----------------------------------*\
| =========                 |                                                 |
| \\      /  F ield         | OpenFOAM: The Open Source CFD Toolbox           |
|  \\    /   O peration     | Version:  5.x                                   |
|   \\  /    A nd           | Web:      www.OpenFOAM.org                      |
|    \\/     M anipulation  |                                                 |
\*---------------------------------------------------------------------------*/
FoamFile
{
    version     2.0;
    format      ascii;
    class       volScalarField;
    location    "12.1";
    object      p;
}
// * * * * * * * * * * * * * * * * * * * * * * * * * * * * * * * * * * * * * //

dimensions      [0 2 -2 0 0 0 0];

internalField   nonuniform List<scalar> 
400
(
1.02637e-09
-0.000450775
-0.000801481
-0.00102963
-0.00113047
-0.00118744
-0.0012038
-0.00120454
-0.00119736
-0.00120732
-0.00120733
-0.0012023
-0.00120876
-0.00119026
-0.00118049
-0.0011422
-0.00102173
-0.000764425
-0.000581128
0.000370576
-0.000507619
-0.00084384
-0.00103579
-0.00115503
-0.00119854
-0.00121343
-0.00122368
-0.00119521
-0.00120771
-0.00119415
-0.00121042
-0.00120003
-0.00121552
-0.00119538
-0.00119352
-0.00119434
-0.00121233
-0.00111057
-0.00103729
-0.000373109
-0.000812094
-0.00106589
-0.00114186
-0.00118615
-0.00121226
-0.00121083
-0.00121913
-0.00120737
-0.00121349
-0.00120101
-0.00121593
-0.00120047
-0.00121703
-0.0011971
-0.00120621
-0.0011942
-0.00120946
-0.00115931
-0.00108851
-0.000815352
-0.00100401
-0.00116987
-0.00119203
-0.00120282
-0.00121768
-0.00121101
-0.00121969
-0.00121004
-0.0012139
-0.0012053
-0.00120989
-0.00120023
-0.00120964
-0.00119097
-0.00120796
-0.00119833
-0.00119713
-0.00119265
-0.0012307
-0.00108172
-0.00113468
-0.00120204
-0.00119635
-0.0012019
-0.00120705
-0.00121001
-0.00121628
-0.00121321
-0.00121739
-0.00120728
-0.0012174
-0.00119989
-0.00121467
-0.00119677
-0.00121069
-0.00120505
-0.00121289
-0.0012027
-0.00118614
-0.00114054
-0.00118917
-0.00119926
-0.00121558
-0.0012087
-0.00121903
-0.00121793
-0.00122394
-0.00122045
-0.00122078
-0.00121354
-0.00121381
-0.00120226
-0.00120724
-0.00119189
-0.00120137
-0.00118745
-0.0012079
-0.00117796
-0.0012172
-0.00118371
-0.00121094
-0.00123684
-0.00122909
-0.00122034
-0.00122064
-0.00122517
-0.0012296
-0.00122835
-0.00122698
-0.0012198
-0.00122141
-0.00120587
-0.00121475
-0.00119962
-0.00121163
-0.0012029
-0.00120965
-0.00120041
-0.00120969
-0.00117528
-0.00125659
-0.00123687
-0.00122897
-0.0012235
-0.00123693
-0.00124555
-0.00125036
-0.00124721
-0.00123716
-0.00122912
-0.00122084
-0.00120737
-0.00120687
-0.00119267
-0.00120201
-0.00117796
-0.00120037
-0.00116405
-0.00118108
-0.00117711
-0.0012232
-0.00121957
-0.00122845
-0.00124452
-0.00125995
-0.0012776
-0.0012855
-0.00127029
-0.00125543
-0.0012455
-0.00123082
-0.00121536
-0.00121614
-0.00119757
-0.00120903
-0.00119562
-0.00120883
-0.00117898
-0.00121149
-0.00115661
-0.00124792
-0.00126733
-0.00126606
-0.0012942
-0.00134051
-0.0013714
-0.00136302
-0.00132199
-0.00128541
-0.00126196
-0.00123332
-0.0012109
-0.00120729
-0.00119226
-0.00120145
-0.00117876
-0.00119399
-0.00113941
-0.00115872
-0.00113424
-0.00129706
-0.00129775
-0.00131964
-0.00139877
-0.00149235
-0.00157051
-0.00155196
-0.00145643
-0.00135122
-0.00128746
-0.00124673
-0.00122297
-0.00122005
-0.00120325
-0.00121519
-0.00117732
-0.00120568
-0.00117637
-0.00120074
-0.00114333
-0.00129633
-0.00134672
-0.00137934
-0.00153115
-0.00171027
-0.00189682
-0.00188221
-0.00168207
-0.00143906
-0.00129049
-0.00122222
-0.00120772
-0.00119563
-0.00121157
-0.00122954
-0.00114301
-0.00114777
-0.00113453
-0.00113836
-0.00115711
-0.00133367
-0.00139388
-0.00146979
-0.00168176
-0.00189625
-0.00205601
-0.00207291
-0.00179887
-0.00150328
-0.00130229
-0.0012551
-0.00123901
-0.00122157
-0.00124662
-0.00124324
-0.00116383
-0.00121956
-0.00118554
-0.00123509
-0.00117603
-0.00127938
-0.00134541
-0.00145694
-0.00163292
-0.00184299
-0.00198552
-0.00206054
-0.00180929
-0.00146158
-0.0012835
-0.00128144
-0.00126298
-0.00123076
-0.00117619
-0.00120002
-0.00111259
-0.00111047
-0.00110622
-0.00110756
-0.00110913
-0.00112511
-0.00121959
-0.00133532
-0.00152023
-0.00168146
-0.00182727
-0.00186658
-0.00169096
-0.00141468
-0.00123371
-0.00108828
-0.00116682
-0.00124418
-0.0013012
-0.00124595
-0.00113231
-0.00122233
-0.00114302
-0.00123743
-0.00104912
-0.000896844
-0.00106555
-0.00120128
-0.00133444
-0.00146776
-0.00153855
-0.00154492
-0.00149244
-0.00140974
-0.0013479
-0.00139743
-0.00150015
-0.00138466
-0.00122009
-0.00106965
-0.000941676
-0.000998069
-0.000962221
-0.0010027
-0.000973904
-0.000694672
-0.000909871
-0.00101537
-0.00113107
-0.00125605
-0.00131458
-0.00126808
-0.00121511
-0.001348
-0.00138026
-0.00145159
-0.00129996
-0.00119561
-0.00120335
-0.00109093
-0.00120498
-0.00123337
-0.00107751
-0.00125145
-0.00099425
-0.000687333
-0.00093465
-0.000880717
-0.000910819
-0.00104986
-0.00115649
-0.00122094
-0.00126917
-0.00128532
-0.00128384
-0.00123045
-0.00117191
-0.0011583
-0.00110513
-0.00110201
-0.00119215
-0.0011704
-0.00100988
-0.000980163
-0.000749699
-0.000833469
-0.000945965
-0.000752309
-0.000809205
-0.000960818
-0.00109193
-0.00119364
-0.0011697
-0.00122401
-0.00133704
-0.00135985
-0.00128158
-0.00130494
-0.0010431
-0.00116022
-0.00114862
-0.00104607
-0.00131156
-0.000879388
-0.000597568
-0.000894269
-0.000808202
-0.000697597
-0.000916361
-0.00103897
-0.00116702
-0.00123537
-0.0012397
-0.00121709
-0.00120272
-0.00118539
-0.00114891
-0.00109049
-0.00103607
-0.00105292
-0.00111743
-0.00115376
-0.000908047
-0.000346481
0.000903491
)
;

boundaryField
{
    movingWall
    {
        type            zeroGradient;
    }
    fixedWalls
    {
        type            zeroGradient;
    }
    frontAndBack
    {
        type            empty;
    }
}


// ************************************************************************* //
