/*--------------------------------*- C++ -*----------------------------------*\
| =========                 |                                                 |
| \\      /  F ield         | OpenFOAM: The Open Source CFD Toolbox           |
|  \\    /   O peration     | Version:  5.x                                   |
|   \\  /    A nd           | Web:      www.OpenFOAM.org                      |
|    \\/     M anipulation  |                                                 |
\*---------------------------------------------------------------------------*/
FoamFile
{
    version     2.0;
    format      ascii;
    class       volScalarField;
    location    "12";
    object      p;
}
// * * * * * * * * * * * * * * * * * * * * * * * * * * * * * * * * * * * * * //

dimensions      [0 2 -2 0 0 0 0];

internalField   nonuniform List<scalar> 
400
(
6.7558e-10
-0.000453442
-0.0008033
-0.00103322
-0.00113432
-0.00119197
-0.0012105
-0.00121642
-0.00120008
-0.00120314
-0.0012072
-0.00119752
-0.00120628
-0.00119971
-0.00118805
-0.00113984
-0.00101603
-0.000765431
-0.000588694
0.00037565
-0.000526796
-0.000855023
-0.00104404
-0.00115798
-0.00120378
-0.00121502
-0.00123282
-0.00120725
-0.00120995
-0.00119181
-0.00120701
-0.00119662
-0.00121165
-0.00120412
-0.0012027
-0.00119344
-0.00120324
-0.00110842
-0.00104355
-0.000372516
-0.000814578
-0.00107373
-0.00114569
-0.00118913
-0.00121474
-0.001215
-0.00122369
-0.00121195
-0.0012159
-0.00120054
-0.0012159
-0.00119977
-0.00121731
-0.00120265
-0.00121113
-0.00119369
-0.00120914
-0.00116293
-0.00109312
-0.0008161
-0.00100784
-0.00117514
-0.00119494
-0.00120558
-0.00122025
-0.00121456
-0.00122322
-0.00121438
-0.00121646
-0.00120643
-0.00120973
-0.00120089
-0.00121004
-0.00119347
-0.00121076
-0.00119858
-0.00119855
-0.00119543
-0.00123645
-0.00108401
-0.00114621
-0.00120499
-0.00120088
-0.00120397
-0.00120955
-0.0012129
-0.00121916
-0.00121611
-0.00121973
-0.00120878
-0.00121882
-0.00120128
-0.00121642
-0.00119948
-0.00121374
-0.00120718
-0.00121485
-0.00120471
-0.00118845
-0.00114194
-0.00119005
-0.00120531
-0.00122064
-0.00121166
-0.00122144
-0.00122085
-0.00122649
-0.00122319
-0.00122311
-0.00121523
-0.00121547
-0.00120393
-0.00120873
-0.00119385
-0.00120338
-0.00118912
-0.00120952
-0.0011803
-0.00122017
-0.00118722
-0.00121611
-0.0012473
-0.00122798
-0.00122071
-0.00122156
-0.00122684
-0.00123153
-0.00123082
-0.0012293
-0.00122157
-0.00122382
-0.00120793
-0.00121715
-0.0012021
-0.00121407
-0.00120537
-0.00121232
-0.0012046
-0.00121401
-0.00117838
-0.00125094
-0.00123149
-0.00122346
-0.00122347
-0.00123813
-0.00124805
-0.00125279
-0.00124984
-0.00123929
-0.00123081
-0.00122347
-0.00120944
-0.00120903
-0.00119461
-0.00120362
-0.00117982
-0.0012017
-0.0011663
-0.00118257
-0.00118098
-0.00121224
-0.00121867
-0.00122902
-0.0012506
-0.00126631
-0.00128273
-0.00128971
-0.00127413
-0.00125681
-0.00124693
-0.00123429
-0.00121785
-0.0012186
-0.00119981
-0.00121101
-0.00119631
-0.00121002
-0.00118296
-0.0012153
-0.00116377
-0.00126166
-0.0012732
-0.00127589
-0.00130907
-0.00135784
-0.00138797
-0.0013731
-0.00132754
-0.00128649
-0.00126214
-0.00123708
-0.00121405
-0.00120977
-0.00119375
-0.00120284
-0.001179
-0.00119325
-0.00114126
-0.00116054
-0.00113357
-0.00130681
-0.00131214
-0.00133285
-0.0014251
-0.00152065
-0.00159763
-0.0015702
-0.00146052
-0.0013503
-0.00128912
-0.00125223
-0.00122695
-0.00122146
-0.0012029
-0.00121456
-0.00117594
-0.00120643
-0.00117429
-0.00120192
-0.00113918
-0.00130847
-0.00137011
-0.00141057
-0.00157
-0.00175404
-0.00193194
-0.00190169
-0.00167324
-0.00143104
-0.00129013
-0.00122998
-0.00121298
-0.00119834
-0.00121537
-0.00122798
-0.00113903
-0.00114837
-0.00113102
-0.00113578
-0.00115102
-0.00134466
-0.00140055
-0.00149742
-0.0017114
-0.00192928
-0.00207276
-0.00207347
-0.00177481
-0.00149495
-0.00129633
-0.00126087
-0.0012459
-0.00121958
-0.00124228
-0.00123844
-0.00115866
-0.001218
-0.00117824
-0.00122425
-0.00117057
-0.00127424
-0.0013456
-0.00147017
-0.001656
-0.00185364
-0.00199668
-0.00205375
-0.00176754
-0.00144292
-0.00128916
-0.00129065
-0.00126261
-0.0012284
-0.00118047
-0.00120011
-0.00111073
-0.00110991
-0.00110833
-0.00111147
-0.00111658
-0.00111361
-0.00121864
-0.0013497
-0.00153687
-0.00168865
-0.00183434
-0.00184525
-0.0016619
-0.00137504
-0.00118823
-0.00109151
-0.00120476
-0.00124666
-0.00128082
-0.0012157
-0.00114007
-0.00121592
-0.00114583
-0.00124201
-0.00106147
-0.000869862
-0.00105531
-0.00120936
-0.00133503
-0.00145925
-0.00151908
-0.00152345
-0.00147778
-0.00140164
-0.00135767
-0.00142786
-0.00147991
-0.00129002
-0.00113675
-0.00104271
-0.000958915
-0.00100532
-0.000980434
-0.00100417
-0.000982442
-0.00070538
-0.000917073
-0.00101291
-0.00112228
-0.00123801
-0.00127218
-0.00122709
-0.00121913
-0.00138456
-0.00138691
-0.00142552
-0.00127784
-0.00116825
-0.00119782
-0.00110104
-0.00119992
-0.00124434
-0.00107842
-0.00124926
-0.00099356
-0.000735591
-0.000971053
-0.000882894
-0.000913564
-0.00106213
-0.00115879
-0.00121999
-0.00126613
-0.00127607
-0.00126629
-0.00122246
-0.00116586
-0.00114553
-0.00110184
-0.00110194
-0.00119884
-0.00117341
-0.00100841
-0.000977572
-0.000748115
-0.000845287
-0.00096187
-0.000769598
-0.000837655
-0.000994471
-0.00108032
-0.00113845
-0.00113989
-0.00122335
-0.00132767
-0.00133909
-0.00125615
-0.00127576
-0.00104084
-0.00117127
-0.00115929
-0.00105267
-0.0013147
-0.000891786
-0.000597403
-0.000915004
-0.000827094
-0.000721689
-0.000939901
-0.00105024
-0.00115678
-0.00121002
-0.00121976
-0.0012086
-0.00119758
-0.00117668
-0.00113691
-0.00108169
-0.00103515
-0.00105974
-0.00112903
-0.00115178
-0.000900703
-0.000352732
0.000906544
)
;

boundaryField
{
    movingWall
    {
        type            zeroGradient;
    }
    fixedWalls
    {
        type            zeroGradient;
    }
    frontAndBack
    {
        type            empty;
    }
}


// ************************************************************************* //
