/*--------------------------------*- C++ -*----------------------------------*\
| =========                 |                                                 |
| \\      /  F ield         | OpenFOAM: The Open Source CFD Toolbox           |
|  \\    /   O peration     | Version:  5.x                                   |
|   \\  /    A nd           | Web:      www.OpenFOAM.org                      |
|    \\/     M anipulation  |                                                 |
\*---------------------------------------------------------------------------*/
FoamFile
{
    version     2.0;
    format      ascii;
    class       surfaceScalarField;
    location    "12";
    object      phi;
}
// * * * * * * * * * * * * * * * * * * * * * * * * * * * * * * * * * * * * * //

dimensions      [0 3 -1 0 0 0 0];

internalField   nonuniform List<scalar> 
760
(
-9.57999e-07
9.57999e-07
-1.78279e-06
8.24786e-07
-2.0606e-06
2.77816e-07
-2.29064e-06
2.30039e-07
-2.32069e-06
3.00478e-08
-2.39338e-06
7.26938e-08
-2.37562e-06
-1.77582e-08
-2.37543e-06
-1.96025e-10
-2.37297e-06
-2.45512e-09
-2.3932e-06
2.02286e-08
-2.41231e-06
1.91077e-08
-2.42474e-06
1.2429e-08
-2.46554e-06
4.07979e-08
-2.41266e-06
-5.28733e-08
-2.39201e-06
-2.06564e-08
-2.32046e-06
-7.15485e-08
-2.27226e-06
-4.81998e-08
-1.93879e-06
-3.33468e-07
-1.22265e-06
-7.16136e-07
-1.22265e-06
-6.82588e-07
1.64059e-06
-9.46152e-07
1.08835e-06
-1.05079e-06
3.82452e-07
-1.05255e-06
2.31799e-07
-1.07254e-06
5.00441e-08
-1.04583e-06
4.59815e-08
-1.04691e-06
-1.66802e-08
-1.04194e-06
-5.16864e-09
-1.02152e-06
-2.28763e-08
-9.80448e-07
-2.08396e-08
-9.7205e-07
1.07103e-08
-9.35776e-07
-2.38449e-08
-9.26688e-07
3.171e-08
-9.43905e-07
-3.56567e-08
-1.01773e-06
5.3172e-08
-1.05871e-06
-3.05741e-08
-1.0651e-06
-4.18047e-08
-1.04393e-06
-3.54642e-07
-9.60699e-07
-7.99367e-07
-2.18335e-06
-3.85449e-07
2.02604e-06
-4.05955e-07
1.10886e-06
-3.83614e-07
3.60111e-07
-3.55999e-07
2.04184e-07
-3.31206e-07
2.52508e-08
-3.21221e-07
3.59966e-08
-2.97266e-07
-4.06349e-08
-2.92071e-07
-1.03641e-08
-2.69695e-07
-4.52517e-08
-2.54295e-07
-3.62394e-08
-2.25825e-07
-1.77603e-08
-2.24071e-07
-2.5599e-08
-2.10218e-07
1.78571e-08
-2.49863e-07
3.98829e-09
-2.80595e-07
8.3904e-08
-2.98557e-07
-1.26122e-08
-2.27764e-07
-1.12597e-07
-1.18586e-07
-4.6382e-07
-2.17306e-07
-7.00646e-07
-2.40066e-06
-8.50659e-08
2.1111e-06
-1.58602e-07
1.18239e-06
-1.40103e-07
3.41611e-07
-1.18367e-07
1.82448e-07
-1.6616e-07
7.30444e-08
-1.83261e-07
5.30973e-08
-2.06787e-07
-1.71091e-08
-2.21646e-07
4.49513e-09
-2.29338e-07
-3.75601e-08
-2.33077e-07
-3.24998e-08
-2.28188e-07
-2.26495e-08
-2.2878e-07
-2.50075e-08
-2.27033e-07
1.61108e-08
-2.00151e-07
-2.28943e-08
-1.7521e-07
5.89631e-08
-6.81986e-08
-1.19623e-07
-8.82552e-08
-9.25402e-08
-2.49208e-07
-3.02867e-07
-2.17021e-07
-7.32833e-07
-2.61768e-06
-9.93908e-08
2.21049e-06
-4.57632e-08
1.12877e-06
-2.75689e-08
3.23417e-07
-8.16514e-08
2.36531e-07
-1.60726e-07
1.52119e-07
-2.08003e-07
1.00374e-07
-2.36411e-07
1.12984e-08
-2.36031e-07
4.11573e-09
-2.16177e-07
-5.74144e-08
-1.98465e-07
-5.02113e-08
-1.60662e-07
-6.04524e-08
-1.2054e-07
-6.51294e-08
-6.94526e-08
-3.49771e-08
-1.09857e-08
-8.13612e-08
4.91526e-08
-1.17523e-09
1.23253e-07
-1.93724e-07
1.10971e-07
-8.02576e-08
7.93013e-08
-2.71198e-07
3.25699e-08
-6.86102e-07
-2.58511e-06
-1.42366e-08
2.22473e-06
-5.69964e-08
1.17153e-06
-1.20629e-07
3.87049e-07
-1.49788e-07
2.6569e-07
-2.10479e-07
2.1281e-07
-2.44961e-07
1.34856e-07
-2.63942e-07
3.02799e-08
-2.61125e-07
1.2981e-09
-2.39285e-07
-7.92541e-08
-2.20946e-07
-6.85498e-08
-1.96425e-07
-8.49735e-08
-1.67693e-07
-9.38623e-08
-1.48261e-07
-5.44091e-08
-1.1215e-07
-1.17471e-07
-9.52832e-08
-1.80424e-08
-1.15558e-07
-1.73449e-07
-6.39057e-08
-1.3191e-07
-4.97634e-08
-2.8534e-07
-7.10602e-08
-6.64805e-07
-2.65617e-06
-2.48976e-08
2.24963e-06
2.80275e-09
1.14382e-06
-7.78378e-08
4.6769e-07
-1.68551e-07
3.56403e-07
-2.53958e-07
2.98218e-07
-3.09566e-07
1.90464e-07
-3.17719e-07
3.8433e-08
-3.0223e-07
-1.41911e-08
-2.49204e-07
-1.3228e-07
-2.15564e-07
-1.0219e-07
-1.57016e-07
-1.43521e-07
-1.14093e-07
-1.36786e-07
-5.17282e-08
-1.16773e-07
4.37292e-09
-1.73573e-07
5.29305e-08
-6.66e-08
1.20441e-07
-2.4096e-07
1.05443e-07
-1.16912e-07
7.46492e-08
-2.54546e-07
2.98857e-08
-6.20042e-07
-2.62629e-06
5.48605e-08
2.19477e-06
9.64724e-08
1.10221e-06
-6.52256e-08
6.29388e-07
-2.65385e-07
5.56563e-07
-3.76728e-07
4.0956e-07
-4.20836e-07
2.34572e-07
-4.01732e-07
1.93282e-08
-3.76235e-07
-3.96876e-08
-2.99235e-07
-2.0928e-07
-2.60588e-07
-1.40838e-07
-2.14708e-07
-1.894e-07
-1.79455e-07
-1.7204e-07
-1.39185e-07
-1.57043e-07
-1.29021e-07
-1.83736e-07
-7.85408e-08
-1.1708e-07
-6.9897e-08
-2.49604e-07
-6.77761e-08
-1.19033e-07
-6.88948e-10
-3.21633e-07
6.04047e-09
-6.26771e-07
-2.62024e-06
-1.3553e-09
2.19612e-06
-6.56847e-08
1.16654e-06
-2.39865e-07
8.03568e-07
-3.87092e-07
7.0379e-07
-5.40295e-07
5.62763e-07
-5.76864e-07
2.71141e-07
-5.09972e-07
-4.75639e-08
-3.95638e-07
-1.54021e-07
-2.70073e-07
-3.34844e-07
-2.47609e-07
-1.63302e-07
-1.66383e-07
-2.70626e-07
-1.36888e-07
-2.01535e-07
-8.23748e-08
-2.11556e-07
-7.8558e-08
-1.87553e-07
2.09611e-08
-2.16599e-07
1.26163e-07
-3.54806e-07
9.71196e-08
-8.99894e-08
7.08126e-08
-2.95326e-07
-7.69502e-09
-5.48263e-07
-2.62794e-06
-2.31139e-08
2.21924e-06
-1.12871e-07
1.2563e-06
-2.5979e-07
9.50487e-07
-5.65379e-07
1.00938e-06
-8.35963e-07
8.33346e-07
-8.89851e-07
3.25029e-07
-7.78879e-07
-1.58535e-07
-4.8899e-07
-4.43911e-07
-3.01135e-07
-5.22698e-07
-2.73217e-07
-1.91221e-07
-1.91692e-07
-3.52151e-07
-1.70767e-07
-2.2246e-07
-1.38591e-07
-2.43732e-07
-1.76806e-07
-1.49339e-07
-9.79207e-08
-2.95484e-07
-6.5797e-08
-3.86929e-07
-6.63295e-08
-8.94569e-08
6.55984e-09
-3.68215e-07
2.50519e-08
-5.66755e-07
-2.60289e-06
-7.72549e-09
2.22696e-06
-1.4303e-07
1.3916e-06
-4.84813e-07
1.29227e-06
-7.57804e-07
1.28237e-06
-9.0441e-07
9.79953e-07
-9.90163e-07
4.10782e-07
-9.0491e-07
-2.43789e-07
-6.07939e-07
-7.40882e-07
-3.23216e-07
-8.07421e-07
-1.71109e-07
-3.43327e-07
-6.08106e-08
-4.6245e-07
-7.41232e-08
-2.09148e-07
-1.18343e-07
-1.99512e-07
-2.05424e-07
-6.22577e-08
-1.2731e-07
-3.73598e-07
-1.54258e-07
-3.59981e-07
-7.46141e-09
-2.36254e-07
1.20236e-07
-4.95912e-07
-1.59746e-08
-4.30545e-07
-2.61886e-06
-9.13164e-08
2.31828e-06
-2.04791e-07
1.50508e-06
-3.99164e-07
1.48664e-06
-5.74323e-07
1.45753e-06
-6.64647e-07
1.07028e-06
-7.63325e-07
5.0946e-07
-7.14929e-07
-2.92184e-07
-5.69945e-07
-8.85866e-07
-3.29052e-07
-1.04831e-06
-4.12288e-08
-6.3115e-07
2.86643e-08
-5.32343e-07
-3.9151e-08
-1.41333e-07
-6.62088e-08
-1.72454e-07
-1.75629e-07
4.71624e-08
-1.78815e-07
-3.70412e-07
-1.93003e-07
-3.45792e-07
-1.78015e-07
-2.51242e-07
-1.42669e-07
-5.31258e-07
2.23967e-08
-5.95611e-07
-2.59647e-06
1.26138e-07
2.19214e-06
-7.50717e-09
1.63872e-06
-1.08376e-07
1.58751e-06
-5.60092e-08
1.40516e-06
-4.71662e-08
1.06143e-06
-3.27763e-08
4.9507e-07
4.33781e-08
-3.68339e-07
1.62626e-08
-8.5875e-07
4.40523e-09
-1.03646e-06
2.30409e-07
-8.57154e-07
4.21298e-07
-7.23232e-07
4.07657e-07
-1.27691e-07
4.15153e-07
-1.7995e-07
4.63127e-07
-8.12019e-10
2.95531e-07
-2.02817e-07
1.2039e-07
-1.70651e-07
-1.56784e-08
-1.15173e-07
-1.72755e-07
-3.74182e-07
-6.76102e-08
-7.00756e-07
-2.66408e-06
1.90778e-07
2.00136e-06
3.30677e-07
1.49882e-06
3.86923e-07
1.53127e-06
4.33578e-07
1.35851e-06
5.86999e-07
9.08013e-07
6.8307e-07
3.98999e-07
6.22611e-07
-3.0788e-07
7.36224e-07
-9.72363e-07
5.69936e-07
-8.7017e-07
3.13258e-07
-6.00475e-07
1.31911e-07
-5.41886e-07
2.97327e-07
-2.93106e-07
3.92039e-07
-2.74662e-07
5.82601e-07
-1.91375e-07
5.97607e-07
-2.17823e-07
2.38534e-07
1.88422e-07
1.48644e-07
-2.52836e-08
5.79252e-08
-2.83463e-07
9.83016e-08
-7.41132e-07
-2.56577e-06
2.93747e-07
1.70761e-06
4.555e-07
1.33707e-06
5.67024e-07
1.41974e-06
8.04827e-07
1.1207e-06
1.08564e-06
6.27202e-07
1.19997e-06
2.84666e-07
1.26615e-06
-3.7406e-07
1.28277e-06
-9.88987e-07
1.21173e-06
-7.99125e-07
8.55715e-07
-2.4446e-07
2.88133e-07
2.56959e-08
-1.06258e-09
-3.91098e-09
-1.1669e-07
-1.59035e-07
-1.74205e-07
-1.3386e-07
7.97009e-08
-4.71728e-07
9.44859e-08
1.73638e-07
3.36627e-07
-2.67424e-07
2.86787e-07
-2.33624e-07
-2.65164e-08
-4.27829e-07
-2.59229e-06
5.51996e-07
1.15562e-06
7.92185e-07
1.09688e-06
8.92026e-07
1.3199e-06
1.20568e-06
8.07048e-07
1.45536e-06
3.77521e-07
1.62394e-06
1.16089e-07
1.74845e-06
-4.9857e-07
1.50234e-06
-7.42874e-07
1.3278e-06
-6.2459e-07
1.52391e-06
-4.40567e-07
1.76577e-06
-2.16167e-07
1.64094e-06
1.20926e-07
1.38321e-06
9.86946e-08
9.64585e-07
2.84761e-07
3.77448e-07
1.15409e-07
1.26437e-07
4.24649e-07
1.57321e-07
-2.98309e-07
1.03646e-07
-1.79948e-07
1.24392e-07
-4.48575e-07
-2.4679e-06
7.92913e-07
3.62705e-07
9.91554e-07
8.98242e-07
1.15651e-06
1.15495e-06
1.41038e-06
5.53176e-07
1.52545e-06
2.6245e-07
1.53189e-06
1.09647e-07
1.05739e-06
-2.40643e-08
4.17207e-07
-1.02695e-07
1.1418e-08
-2.18801e-07
-1.05504e-07
-3.23645e-07
-1.4648e-07
-1.75191e-07
5.86195e-08
-8.41734e-08
-4.30177e-08
2.00332e-07
-7.94077e-08
3.21151e-07
-4.56905e-08
8.16912e-08
-1.47261e-07
5.2622e-07
4.39373e-08
-4.89508e-07
-5.20363e-08
-8.39742e-08
-8.55161e-08
-4.15095e-07
-2.55341e-06
4.39291e-07
-7.65856e-08
9.5347e-07
3.84063e-07
1.338e-06
7.70413e-07
1.49508e-06
3.96098e-07
1.56949e-06
1.88043e-07
1.63314e-06
4.59959e-08
1.5957e-06
1.33756e-08
1.48962e-06
3.38414e-09
1.33911e-06
-6.82865e-08
1.09159e-06
-7.61229e-08
8.05989e-07
1.10406e-07
7.09654e-07
1.21611e-08
6.92758e-07
2.17228e-07
6.39026e-07
3.74884e-07
8.15278e-07
-9.45615e-08
8.2762e-07
5.13878e-07
7.17069e-07
-3.78956e-07
4.26665e-07
2.0643e-07
2.88431e-07
-2.76861e-07
-2.26498e-06
-4.27201e-07
3.50615e-07
-2.26931e-07
1.83792e-07
4.40394e-08
4.99442e-07
6.40828e-08
3.76055e-07
-1.36211e-08
2.65746e-07
-1.03835e-07
1.3621e-07
-1.78498e-07
8.80382e-08
-2.44777e-07
6.96633e-08
-3.98909e-07
8.58457e-08
-5.32444e-07
5.74123e-08
-4.73937e-07
5.18984e-08
-4.87241e-07
2.54658e-08
-2.9544e-07
2.54269e-08
-6.35329e-08
1.42976e-07
-2.97226e-07
1.39131e-07
7.30001e-08
1.43652e-07
-2.76078e-07
-2.98781e-08
1.99399e-08
-8.95883e-08
7.40197e-07
-9.97118e-07
-1.52479e-06
3.50615e-07
5.34408e-07
1.03385e-06
1.4099e-06
1.67565e-06
1.81186e-06
1.8999e-06
1.96956e-06
2.05541e-06
2.11282e-06
2.16472e-06
2.19018e-06
2.21561e-06
2.35859e-06
2.49772e-06
2.64137e-06
2.61149e-06
2.52191e-06
1.52479e-06
)
;

boundaryField
{
    movingWall
    {
        type            calculated;
        value           uniform 0;
    }
    fixedWalls
    {
        type            calculated;
        value           uniform 0;
    }
    frontAndBack
    {
        type            empty;
        value           nonuniform 0();
    }
}


// ************************************************************************* //
