/*--------------------------------*- C++ -*----------------------------------*\
| =========                 |                                                 |
| \\      /  F ield         | OpenFOAM: The Open Source CFD Toolbox           |
|  \\    /   O peration     | Version:  5.x                                   |
|   \\  /    A nd           | Web:      www.OpenFOAM.org                      |
|    \\/     M anipulation  |                                                 |
\*---------------------------------------------------------------------------*/
FoamFile
{
    version     2.0;
    format      ascii;
    class       volVectorField;
    location    "12";
    object      U;
}
// * * * * * * * * * * * * * * * * * * * * * * * * * * * * * * * * * * * * * //

dimensions      [0 1 -1 0 0 0 0];

internalField   nonuniform List<vector> 
400
(
(-0.00862607 0.00589132 0)
(-0.0329602 0.0070226 0)
(-0.037883 0.000745132 0)
(-0.04476 0.00219119 0)
(-0.0448875 -0.00181271 0)
(-0.0477249 0.000692755 0)
(-0.0467279 -0.00208159 0)
(-0.0485739 -0.00100365 0)
(-0.0461136 -0.00110201 0)
(-0.0481911 -0.000160514 0)
(-0.0482506 -0.000598505 0)
(-0.0475462 -0.000456611 0)
(-0.0496053 2.88339e-06 0)
(-0.0485957 -0.00146726 0)
(-0.0494057 -0.00127895 0)
(-0.0474197 -0.00172078 0)
(-0.0468217 -0.000980037 0)
(-0.0410639 -0.00476601 0)
(-0.0422772 -0.00972181 0)
(-8.1512e-05 -0.0147155 0)
(-0.00942372 0.028576 0)
(-0.0204088 0.0228519 0)
(-0.016407 0.00891408 0)
(-0.0249849 0.0060104 0)
(-0.0168686 0.00273665 0)
(-0.0250079 0.00196255 0)
(-0.0178313 0.00123952 0)
(-0.0229827 0.00101163 0)
(-0.019614 0.000970607 0)
(-0.0201715 0.00107897 0)
(-0.0199827 0.00143019 0)
(-0.0181433 0.000984434 0)
(-0.0199812 0.0016586 0)
(-0.0164389 -0.000702939 0)
(-0.0220464 0.000357508 0)
(-0.0179287 -0.00154377 0)
(-0.0259546 -0.00154881 0)
(-0.0149409 -0.0106108 0)
(-0.0304774 -0.0224231 0)
(-0.00300097 -0.0392617 0)
(-0.00746756 0.0395128 0)
(-0.00979278 0.0219874 0)
(-0.00530614 0.00722176 0)
(-0.00973359 0.00386221 0)
(-0.00472106 -0.000501706 0)
(-0.00806848 1.37238e-05 0)
(-0.00519103 -0.00179322 0)
(-0.00626055 -0.00125137 0)
(-0.00587078 -0.0018603 0)
(-0.00438405 -0.00201277 0)
(-0.00635431 -0.00107376 0)
(-0.00213886 -0.0019975 0)
(-0.00735673 -0.000493249 0)
(-0.000585227 -0.000776197 0)
(-0.00990879 0.00179543 0)
(-0.000733717 0.000512776 0)
(-0.0119511 0.000242665 0)
(0.00324521 -0.00221839 0)
(-0.00864897 -0.00672653 0)
(0.0014097 -0.0456992 0)
(-0.000964532 0.0408382 0)
(-0.00316728 0.0230963 0)
(-0.00251738 0.00728422 0)
(-0.00288781 0.00428894 0)
(-0.00208283 0.00143421 0)
(-0.00423288 0.00145928 0)
(-0.00342826 7.13009e-05 0)
(-0.00451977 0.000820154 0)
(-0.00465602 0.000131368 0)
(-0.00417641 0.000520738 0)
(-0.00547547 0.000469432 0)
(-0.00329801 0.00100123 0)
(-0.00628984 0.00130542 0)
(-0.00227495 0.000978857 0)
(-0.00623961 0.0017063 0)
(-0.000374998 -0.00103416 0)
(-0.00250721 -0.00444107 0)
(-0.000730131 -0.016437 0)
(-0.010328 -0.0233032 0)
(0.00287281 -0.0515966 0)
(-0.00289931 0.0431022 0)
(-0.00156228 0.0252341 0)
(-2.15848e-05 0.00699534 0)
(-0.00106064 0.00333125 0)
(-0.00231075 0.00172749 0)
(-0.00401611 0.00077441 0)
(-0.00452299 -0.000685682 0)
(-0.00466553 -0.000617487 0)
(-0.00509163 -0.0016779 0)
(-0.00316204 -0.00174585 0)
(-0.0052138 -0.00148917 0)
(-0.000774221 -0.00196217 0)
(-0.00444117 -0.000755889 0)
(0.00195918 -0.00200616 0)
(-0.00250524 0.000501565 0)
(0.00465901 -0.0040242 0)
(-1.01391e-05 0.000445219 0)
(0.00461805 0.00408882 0)
(-0.00164794 -0.00401691 0)
(0.0031747 -0.0498905 0)
(5.94418e-05 0.0473287 0)
(-0.000690789 0.0209344 0)
(-0.00175408 0.00550286 0)
(-0.00274337 0.00587766 0)
(-0.00354137 0.00403028 0)
(-0.00463516 0.00308124 0)
(-0.00542128 0.00108152 0)
(-0.00490162 0.000762478 0)
(-0.00577759 -0.000568164 0)
(-0.0035137 -0.000329033 0)
(-0.00562047 -0.00075606 0)
(-0.00190695 -0.000626427 0)
(-0.00514491 -0.00049688 0)
(-0.000426798 -0.00104108 0)
(-0.00438632 -0.000521209 0)
(0.000906972 -0.00323608 0)
(-0.00596892 -0.00343758 0)
(0.00380276 -0.0142693 0)
(-0.00617058 -0.0246698 0)
(0.00371605 -0.0547913 0)
(-0.0023045 0.0410529 0)
(0.00110968 0.0244285 0)
(-0.000926188 0.0102523 0)
(-0.00226265 0.00489374 0)
(-0.0045455 0.00484232 0)
(-0.005771 0.00254045 0)
(-0.00666421 0.000236029 0)
(-0.00587845 -0.000695406 0)
(-0.00640639 -0.0025975 0)
(-0.0032662 -0.00235145 0)
(-0.00570806 -0.00283022 0)
(-0.00020392 -0.00321955 0)
(-0.00469442 -0.00186873 0)
(0.00285474 -0.00392425 0)
(-0.00274521 -0.000324049 0)
(0.00505836 -0.00421534 0)
(-0.000506693 -0.00208246 0)
(0.0049784 0.0020564 0)
(-0.00229469 -0.00221412 0)
(0.00370934 -0.0498291 0)
(-0.000350896 0.0493909 0)
(0.00273577 0.0226949 0)
(0.00103451 0.00898144 0)
(-0.00367429 0.00982356 0)
(-0.00717576 0.00694638 0)
(-0.00798268 0.0050038 0)
(-0.00874406 0.00127337 0)
(-0.00726201 8.23121e-05 0)
(-0.00760776 -0.00260098 0)
(-0.00423092 -0.00164127 0)
(-0.00642241 -0.00266929 0)
(-0.00186532 -0.00208614 0)
(-0.00562707 -0.00251862 0)
(0.000379791 -0.00270198 0)
(-0.00591718 -0.00211134 0)
(0.00312385 -0.00479189 0)
(-0.00629748 -0.00231881 0)
(0.00396842 -0.0114635 0)
(-0.00403073 -0.0215032 0)
(0.00432093 -0.0551828 0)
(-0.00219172 0.0404213 0)
(0.00211612 0.0212933 0)
(-0.00458929 0.0162254 0)
(-0.00536022 0.0124982 0)
(-0.00992343 0.010086 0)
(-0.0118885 0.00490386 0)
(-0.0112223 -0.00039864 0)
(-0.00878722 -0.0015282 0)
(-0.0067364 -0.00567694 0)
(-0.00421272 -0.00415369 0)
(-0.00585861 -0.0051801 0)
(-0.00052486 -0.00505461 0)
(-0.00526552 -0.00409967 0)
(0.00225228 -0.00494851 0)
(-0.00568638 -0.00285121 0)
(0.00667766 -0.00579899 0)
(-0.00204687 -0.00276341 0)
(0.00637042 -0.00225675 0)
(-0.00398635 -0.00495488 0)
(0.00382382 -0.0503888 0)
(-0.00111851 0.0451442 0)
(0.000104264 0.0242721 0)
(-0.00431402 0.0155199 0)
(-0.00643534 0.0163011 0)
(-0.0168185 0.0125944 0)
(-0.0173238 0.00630495 0)
(-0.0176139 -0.00123471 0)
(-0.0128223 -0.00423977 0)
(-0.00641005 -0.0073538 0)
(-0.00591315 -0.00214944 0)
(-0.00518424 -0.00530798 0)
(-0.00221437 -0.0026644 0)
(-0.00493791 -0.00395968 0)
(-0.000289312 -0.00223723 0)
(-0.00723037 -0.00542868 0)
(0.00367966 -0.00782442 0)
(-0.0066723 -0.000520885 0)
(0.00444012 -0.00867844 0)
(-0.00430433 -0.0155604 0)
(0.0055006 -0.0531733 0)
(-0.00247495 0.0445647 0)
(0.00217457 0.0267705 0)
(-0.00745901 0.0231631 0)
(-0.012834 0.0232473 0)
(-0.0180114 0.020438 0)
(-0.0194169 0.00698928 0)
(-0.0194392 -0.00498922 0)
(-0.0155081 -0.0137881 0)
(-0.00807304 -0.0140306 0)
(-0.00526607 -0.00589329 0)
(-0.00180318 -0.00936005 0)
(-0.000518753 -0.00667308 0)
(-0.00266296 -0.00630128 0)
(-0.00175523 -0.00390004 0)
(-0.00703134 -0.00669866 0)
(0.00248349 -0.00826048 0)
(-0.00928955 -0.00348024 0)
(0.00911774 -0.00707691 0)
(-0.00492271 -0.00862284 0)
(0.00450521 -0.0511946 0)
(-0.00247888 0.0443304 0)
(-0.00154414 0.0276719 0)
(-0.00590134 0.0273393 0)
(-0.0108851 0.0268628 0)
(-0.0127751 0.0170872 0)
(-0.0154165 0.00782929 0)
(-0.0146505 -0.00598877 0)
(-0.0123 -0.0175155 0)
(-0.00941275 -0.0182901 0)
(-0.00417972 -0.00736661 0)
(0.00236294 -0.00825923 0)
(-0.00136373 -0.00114639 0)
(-4.75973e-05 -0.00112994 0)
(-0.00282835 0.00138898 0)
(-0.00478241 -0.00820431 0)
(-0.00152836 -0.00533239 0)
(-0.00688867 -0.00500845 0)
(0.000193887 -0.0115058 0)
(-0.00610256 -0.00710794 0)
(0.00689236 -0.053152 0)
(0.00305993 0.0461102 0)
(0.00204673 0.0313366 0)
(-0.00226716 0.0305777 0)
(-0.00254638 0.0292378 0)
(2.92861e-05 0.0238443 0)
(-0.00212815 0.0129721 0)
(0.00052875 -0.00572613 0)
(0.00175544 -0.0185631 0)
(-0.000958487 -0.0250964 0)
(0.00122545 -0.0184077 0)
(0.00717701 -0.0136817 0)
(0.00916963 -0.0049188 0)
(0.00779908 -0.0061906 0)
(0.00803541 0.000190578 0)
(0.00979244 -0.0071896 0)
(0.0031393 -0.00941687 0)
(0.000939324 -0.00626628 0)
(-0.00131316 -0.0112165 0)
(-0.00639398 -0.0187366 0)
(0.0041444 -0.0526223 0)
(0.000559458 0.0425778 0)
(0.00678677 0.0343272 0)
(0.00628537 0.0338358 0)
(0.00853673 0.0288166 0)
(0.008263 0.0204672 0)
(0.0143856 0.00782082 0)
(0.011062 -0.00902871 0)
(0.0158858 -0.0148552 0)
(0.0151066 -0.0156793 0)
(0.00709044 -0.0172255 0)
(0.00443293 -0.0170192 0)
(0.000914758 -0.000434646 0)
(0.0111808 -0.000910725 0)
(0.00516229 -9.76463e-05 0)
(0.0167027 -0.00030663 0)
(0.00874899 0.00329185 0)
(0.000148458 0.00260579 0)
(0.00591644 -0.00245814 0)
(-0.00362328 -0.00683436 0)
(0.00744295 -0.0521746 0)
(0.00102077 0.0379989 0)
(0.0100403 0.0268228 0)
(0.00792238 0.0282868 0)
(0.0138155 0.0246188 0)
(0.0190238 0.0154638 0)
(0.022628 0.00743634 0)
(0.0247705 -0.00256135 0)
(0.0274306 -0.0237076 0)
(0.0261999 -0.017572 0)
(0.0228567 -0.00459857 0)
(0.0120985 -0.00175143 0)
(-0.00178843 -0.00980807 0)
(0.00183826 -0.0103778 0)
(-0.00699347 -0.00879859 0)
(0.000594997 -0.00937955 0)
(0.00309807 0.00317991 0)
(-7.28871e-05 -0.00413272 0)
(0.0149825 -0.0102021 0)
(-0.00509042 -0.0258137 0)
(0.00452433 -0.051883 0)
(0.00340414 0.0327983 0)
(0.0170977 0.0281505 0)
(0.0147979 0.0290793 0)
(0.021582 0.0215887 0)
(0.0253647 0.0106629 0)
(0.0337971 0.00506858 0)
(0.0304961 -0.0113604 0)
(0.0403194 -0.0160553 0)
(0.0213362 -0.0158837 0)
(0.0312263 -0.00657059 0)
(0.0279171 0.00211923 0)
(0.0417259 0.00924664 0)
(0.0268753 0.00347311 0)
(0.0281197 0.00456964 0)
(0.00931015 -0.00754025 0)
(0.00667284 0.00526896 0)
(-0.00230326 -0.0045515 0)
(0.00918834 0.00231094 0)
(-0.00546296 0.0114049 0)
(0.0108209 -0.0493285 0)
(0.00580458 0.0142479 0)
(0.0236273 0.0175324 0)
(0.0177523 0.0255544 0)
(0.0276023 0.011083 0)
(0.0271657 0.00501376 0)
(0.0351471 -2.65097e-05 0)
(0.0274941 -0.00692507 0)
(0.015993 -0.0113638 0)
(-0.00094612 -0.0101471 0)
(0.00160626 -0.0105155 0)
(-0.00647396 -0.00997075 0)
(0.00136208 -0.00321458 0)
(0.0013568 0.00117357 0)
(-0.00354782 0.00534734 0)
(0.00108542 0.0113404 0)
(-0.00338788 0.0093701 0)
(-0.00319924 -0.00951962 0)
(0.00564806 -0.0107352 0)
(-0.00861477 -0.0323392 0)
(0.00626824 -0.0534652 0)
(-3.54269e-05 -0.000665816 0)
(0.0154198 0.0161921 0)
(0.0256623 0.019453 0)
(0.026887 0.012162 0)
(0.0306647 0.00571942 0)
(0.0332341 0.00388177 0)
(0.031831 0.00555551 0)
(0.0314858 0.00626489 0)
(0.0285316 0.00228541 0)
(0.0252754 -0.000979556 0)
(0.0180517 0.00425687 0)
(0.0151234 0.000227753 0)
(0.01242 0.00736548 0)
(0.0160047 0.00864958 0)
(0.0104508 -0.00761441 0)
(0.0202411 0.0130762 0)
(0.0130011 -0.00844014 0)
(0.0176665 0.00832799 0)
(-0.00228143 0.0181498 0)
(0.015388 -0.0444778 0)
(-0.0145886 -0.00279562 0)
(-0.00442808 -0.000732644 0)
(-0.00299519 0.0117929 0)
(0.00442999 0.00356073 0)
(-0.00224845 0.00165412 0)
(0.00185491 -0.00167988 0)
(-0.00621443 -0.00475411 0)
(-0.000261475 -0.00593991 0)
(-0.0101119 -0.00523907 0)
(-0.00670954 -0.00281143 0)
(-0.014649 -0.000996175 0)
(-0.00296198 -7.07696e-05 0)
(-0.0183624 -0.000103509 0)
(0.00843645 0.00654348 0)
(-0.0117755 0.00314168 0)
(0.000443893 0.0082159 0)
(0.00329568 -0.00530201 0)
(-0.0167488 -0.00220593 0)
(0.0181178 -0.0311129 0)
(0.0131183 -0.054207 0)
(0.00175457 0.0162294 0)
(0.0129908 0.00906283 0)
(0.0102918 0.00799208 0)
(0.0280711 0.0100894 0)
(0.0300327 0.00807485 0)
(0.0359739 0.00633827 0)
(0.0365173 0.00763259 0)
(0.0392203 0.00808993 0)
(0.0403245 0.00871197 0)
(0.0415889 0.00571225 0)
(0.04328 0.00374783 0)
(0.0431821 0.00150358 0)
(0.0450636 0.00164084 0)
(0.0451708 -0.00121135 0)
(0.0479995 0.0033324 0)
(0.0496468 -0.0022441 0)
(0.0527238 0.00366794 0)
(0.051573 4.23435e-05 0)
(0.0446367 -0.0043188 0)
(0.0241058 0.00254017 0)
)
;

boundaryField
{
    movingWall
    {
        type            fixedValue;
        value           uniform (1 0 0);
    }
    fixedWalls
    {
        type            noSlip;
    }
    frontAndBack
    {
        type            empty;
    }
}


// ************************************************************************* //
