/*--------------------------------*- C++ -*----------------------------------*\
| =========                 |                                                 |
| \\      /  F ield         | OpenFOAM: The Open Source CFD Toolbox           |
|  \\    /   O peration     | Version:  5.x                                   |
|   \\  /    A nd           | Web:      www.OpenFOAM.org                      |
|    \\/     M anipulation  |                                                 |
\*---------------------------------------------------------------------------*/
FoamFile
{
    version     2.0;
    format      ascii;
    class       volScalarField;
    location    "7.8";
    object      p;
}
// * * * * * * * * * * * * * * * * * * * * * * * * * * * * * * * * * * * * * //

dimensions      [0 2 -2 0 0 0 0];

internalField   nonuniform List<scalar> 
400
(
-1.96592e-10
-0.000369161
-0.000911916
-0.00140025
-0.0016661
-0.00172439
-0.00161468
-0.00141056
-0.00132552
-0.00122814
-0.00109107
-0.00102246
-0.00104148
-0.0010713
-0.00109328
-0.00107151
-0.000998755
-0.000818628
-0.000566646
0.000277721
-0.00026408
-0.000707254
-0.00128672
-0.0017739
-0.00190562
-0.00193224
-0.00173588
-0.00142752
-0.00132582
-0.00125634
-0.00110849
-0.00102177
-0.00105262
-0.00109186
-0.00112122
-0.00111801
-0.00115425
-0.00109364
-0.00099167
-0.000428363
-0.000941205
-0.00131164
-0.00169665
-0.00200114
-0.00209646
-0.00200942
-0.00178106
-0.00150288
-0.001337
-0.00122311
-0.00111892
-0.00105951
-0.00107399
-0.0010782
-0.00112627
-0.00111374
-0.0011595
-0.0011257
-0.00108694
-0.000810091
-0.0012268
-0.00147264
-0.00175149
-0.00197213
-0.00201685
-0.00191295
-0.00171932
-0.00149067
-0.00133973
-0.00123766
-0.0011728
-0.00111485
-0.00111627
-0.0011075
-0.00113302
-0.00111911
-0.00114299
-0.00111032
-0.00113708
-0.00101015
-0.00117431
-0.00133448
-0.00152672
-0.00167263
-0.00171361
-0.00166805
-0.0015552
-0.001415
-0.0013081
-0.0012264
-0.0011815
-0.00113138
-0.00113641
-0.00111779
-0.00114549
-0.00112887
-0.00116092
-0.00113043
-0.00116793
-0.00109444
-0.00110498
-0.00120789
-0.00133788
-0.00144413
-0.00149167
-0.0014806
-0.00142697
-0.00134961
-0.00128198
-0.00122248
-0.00119281
-0.00115128
-0.00115502
-0.00112934
-0.00115284
-0.00112747
-0.00116082
-0.00112485
-0.001175
-0.00113517
-0.00107967
-0.00114148
-0.00122588
-0.00130166
-0.00134601
-0.00135328
-0.00133114
-0.00129169
-0.00125269
-0.00121325
-0.00119393
-0.00116303
-0.0011679
-0.00114526
-0.00116407
-0.00114432
-0.00117062
-0.00114675
-0.00118031
-0.00115154
-0.00107841
-0.00111733
-0.0011736
-0.00122703
-0.00126239
-0.00127415
-0.00126734
-0.00124691
-0.00122441
-0.00119712
-0.00118613
-0.00115833
-0.0011678
-0.0011391
-0.00116543
-0.00113337
-0.00117342
-0.00113408
-0.00119323
-0.00115533
-0.00108121
-0.00110893
-0.00114861
-0.00118727
-0.00121602
-0.00123082
-0.00123336
-0.00122632
-0.0012152
-0.00119768
-0.00119216
-0.00117231
-0.00117847
-0.00115853
-0.00117592
-0.00115301
-0.00118283
-0.00115137
-0.00120294
-0.00116047
-0.00108257
-0.00110861
-0.00113892
-0.00116841
-0.00118942
-0.00119945
-0.00120152
-0.00119489
-0.00118911
-0.00117449
-0.00117506
-0.00115534
-0.00116778
-0.00114269
-0.00116897
-0.0011365
-0.00117781
-0.0011346
-0.00118968
-0.00114291
-0.00108042
-0.0011088
-0.00113558
-0.00115894
-0.00117687
-0.00118871
-0.00119417
-0.00119471
-0.00119261
-0.00118582
-0.00118523
-0.00117359
-0.00118081
-0.00116506
-0.00118162
-0.00115562
-0.00118624
-0.00114257
-0.0012061
-0.00113975
-0.00107324
-0.00112099
-0.00114029
-0.00116031
-0.00116984
-0.00117323
-0.00117641
-0.00117187
-0.00117132
-0.00116142
-0.00116462
-0.00115034
-0.00115973
-0.00114059
-0.0011616
-0.00113378
-0.00117765
-0.00113273
-0.00118187
-0.00113892
-0.00110153
-0.00114799
-0.00115039
-0.00116104
-0.00117223
-0.00118225
-0.0011841
-0.00118441
-0.00118151
-0.00117884
-0.00117734
-0.00117347
-0.00117789
-0.00116893
-0.00118823
-0.00115817
-0.00118391
-0.00113751
-0.00121368
-0.00112271
-0.00115423
-0.00123965
-0.0011591
-0.00118407
-0.00118378
-0.00117879
-0.00117144
-0.00116291
-0.00116125
-0.00115547
-0.00115725
-0.00115088
-0.00115162
-0.00114185
-0.00113469
-0.00113455
-0.0011672
-0.00110631
-0.00113021
-0.00110856
-0.00120416
-0.00123521
-0.00117981
-0.00119051
-0.00118794
-0.00117543
-0.00116615
-0.00117071
-0.00116706
-0.00117315
-0.00116389
-0.00117955
-0.00115857
-0.00117589
-0.00119458
-0.00117373
-0.00122428
-0.00113727
-0.00122444
-0.00111794
-0.0013102
-0.00124214
-0.00120331
-0.00119069
-0.00119339
-0.00116165
-0.00117166
-0.00116354
-0.00116881
-0.00116125
-0.00116455
-0.00115768
-0.00116218
-0.00118171
-0.00114275
-0.00111556
-0.0011272
-0.00112047
-0.00112831
-0.00108952
-0.00112377
-0.00125887
-0.00120445
-0.00117367
-0.00118436
-0.00115537
-0.00116562
-0.00115525
-0.00116457
-0.00116714
-0.00117556
-0.00117271
-0.00116487
-0.00120205
-0.0011397
-0.00119542
-0.00122669
-0.00113466
-0.00122791
-0.00106686
-0.0010889
-0.00127365
-0.00120301
-0.00117123
-0.0011764
-0.00115189
-0.0011594
-0.00115506
-0.00115968
-0.00115574
-0.00115164
-0.00114056
-0.0011496
-0.00115123
-0.00116823
-0.00123063
-0.00117896
-0.00109316
-0.00101464
-0.000892396
-0.00105099
-0.00118349
-0.00120045
-0.00117878
-0.00116032
-0.00114501
-0.00114329
-0.00114968
-0.00115281
-0.00115772
-0.00117393
-0.00113373
-0.00120249
-0.00111742
-0.00119983
-0.00122009
-0.00115059
-0.00123676
-0.00109773
-0.000615646
-0.00119815
-0.00114559
-0.00112486
-0.00119632
-0.0011389
-0.00114292
-0.0011417
-0.00114658
-0.00114358
-0.00115284
-0.00114216
-0.00112698
-0.00111375
-0.00107416
-0.00114307
-0.00116825
-0.00115734
-0.000929829
-0.000464967
0.000760075
)
;

boundaryField
{
    movingWall
    {
        type            zeroGradient;
    }
    fixedWalls
    {
        type            zeroGradient;
    }
    frontAndBack
    {
        type            empty;
    }
}


// ************************************************************************* //
