/*--------------------------------*- C++ -*----------------------------------*\
| =========                 |                                                 |
| \\      /  F ield         | OpenFOAM: The Open Source CFD Toolbox           |
|  \\    /   O peration     | Version:  5.x                                   |
|   \\  /    A nd           | Web:      www.OpenFOAM.org                      |
|    \\/     M anipulation  |                                                 |
\*---------------------------------------------------------------------------*/
FoamFile
{
    version     2.0;
    format      ascii;
    class       surfaceScalarField;
    location    "7.8";
    object      phi;
}
// * * * * * * * * * * * * * * * * * * * * * * * * * * * * * * * * * * * * * //

dimensions      [0 3 -1 0 0 0 0];

internalField   nonuniform List<scalar> 
760
(
-8.16104e-07
8.16104e-07
-1.67483e-06
8.58724e-07
-2.52619e-06
8.51364e-07
-2.80226e-06
2.76066e-07
-2.92906e-06
1.26805e-07
-2.96595e-06
3.68845e-08
-2.6596e-06
-3.06349e-07
-2.5111e-06
-1.485e-07
-2.53032e-06
1.92214e-08
-2.34038e-06
-1.89943e-07
-2.129e-06
-2.11379e-07
-2.10633e-06
-2.26743e-08
-2.19502e-06
8.86921e-08
-2.2245e-06
2.94792e-08
-2.24425e-06
1.9754e-08
-2.21277e-06
-3.14833e-08
-2.16615e-06
-4.66129e-08
-1.86815e-06
-2.98e-07
-1.26685e-06
-6.01308e-07
-1.26685e-06
-1.05642e-06
1.87253e-06
-1.64311e-06
1.44541e-06
-1.87983e-06
1.08809e-06
-2.21304e-06
6.09276e-07
-2.27908e-06
1.92845e-07
-2.09146e-06
-1.5074e-07
-1.99167e-06
-4.06134e-07
-1.72038e-06
-4.19789e-07
-1.33283e-06
-3.68334e-07
-1.14122e-06
-3.81547e-07
-1.07058e-06
-2.82027e-07
-9.51554e-07
-1.41695e-07
-8.67111e-07
4.24871e-09
-8.46682e-07
9.05024e-09
-9.25767e-07
9.88388e-08
-9.48984e-07
-8.26606e-09
-1.01711e-06
2.15145e-08
-1.00566e-06
-3.09454e-07
-8.36064e-07
-7.70902e-07
-2.10291e-06
-3.34949e-07
2.20747e-06
-6.28904e-07
1.73937e-06
-7.83317e-07
1.2425e-06
-8.62066e-07
6.88025e-07
-8.59953e-07
1.90732e-07
-8.14001e-07
-1.96692e-07
-7.52664e-07
-4.67472e-07
-6.34164e-07
-5.38289e-07
-5.08384e-07
-4.94114e-07
-4.54452e-07
-4.35479e-07
-4.07716e-07
-3.28763e-07
-3.25376e-07
-2.24035e-07
-2.45981e-07
-7.51463e-08
-1.81014e-07
-5.59171e-08
-1.33314e-07
5.11387e-08
-8.91353e-08
-5.24448e-08
-6.61482e-08
-1.47256e-09
-1.11211e-07
-2.64392e-07
-2.38408e-07
-6.43705e-07
-2.34132e-06
2.10256e-07
1.99722e-06
3.00691e-07
1.64893e-06
3.49118e-07
1.19407e-06
3.54047e-07
6.83096e-07
3.22007e-07
2.22772e-07
2.69788e-07
-1.44474e-07
1.91569e-07
-3.89252e-07
1.18658e-07
-4.65378e-07
6.73575e-08
-4.42814e-07
1.182e-08
-3.79941e-07
-2.99248e-08
-2.87018e-07
-5.41738e-08
-1.99786e-07
-5.79316e-08
-7.13885e-08
-5.01418e-08
-6.3707e-08
-4.1681e-08
4.26779e-08
-4.11383e-08
-5.29874e-08
-4.597e-08
3.3591e-09
-1.07798e-07
-2.02564e-07
-1.33995e-07
-6.17508e-07
-2.47531e-06
4.11509e-07
1.58571e-06
6.79469e-07
1.38097e-06
8.29461e-07
1.04408e-06
8.62056e-07
6.50502e-07
8.06883e-07
2.77945e-07
6.87899e-07
-2.54895e-08
5.17585e-07
-2.18939e-07
3.52472e-07
-3.00265e-07
2.09374e-07
-2.99715e-07
9.56731e-08
-2.6624e-07
1.45075e-08
-2.05853e-07
-2.89205e-08
-1.56358e-07
-2.64917e-08
-7.38173e-08
-1.55818e-08
-7.46168e-08
1.25279e-08
1.45681e-08
1.63412e-08
-5.68007e-08
-9.58036e-10
2.06584e-08
-2.67312e-08
-1.7679e-07
-4.04514e-08
-6.03788e-07
-2.51576e-06
3.88646e-07
1.19706e-06
6.72235e-07
1.09738e-06
8.41158e-07
8.75159e-07
8.92906e-07
5.98753e-07
8.46314e-07
3.24537e-07
7.26783e-07
9.40422e-08
5.71952e-07
-6.41079e-08
4.21054e-07
-1.49367e-07
2.91968e-07
-1.70629e-07
1.97533e-07
-1.71806e-07
1.20736e-07
-1.29055e-07
7.80913e-08
-1.13713e-07
4.6914e-08
-4.26399e-08
2.91832e-08
-5.68861e-08
2.23029e-08
2.14484e-08
5.15978e-09
-3.96576e-08
1.46846e-09
2.43497e-08
-3.39007e-08
-1.41421e-07
-1.21131e-08
-6.25575e-07
-2.52788e-06
2.95654e-07
9.01409e-07
5.32635e-07
8.60402e-07
6.87661e-07
7.20133e-07
7.50333e-07
5.36081e-07
7.30856e-07
3.44014e-07
6.50256e-07
1.74642e-07
5.3574e-07
5.04073e-08
4.20082e-07
-3.37088e-08
3.13825e-07
-6.43717e-08
2.31778e-07
-8.97592e-08
1.61773e-07
-5.90509e-08
1.19331e-07
-7.12705e-08
8.6215e-08
-9.52392e-09
6.79739e-08
-3.8645e-08
5.22094e-08
3.72129e-08
2.92511e-08
-1.66993e-08
5.82524e-09
4.77756e-08
-2.42278e-08
-1.11368e-07
-2.73529e-08
-6.2245e-07
-2.55523e-06
2.21402e-07
6.80006e-07
4.00748e-07
6.81056e-07
5.2182e-07
5.99061e-07
5.78976e-07
4.78926e-07
5.74204e-07
3.48786e-07
5.27415e-07
2.21431e-07
4.51714e-07
1.26109e-07
3.70756e-07
4.72497e-08
2.88528e-07
1.78564e-08
2.20685e-07
-2.19165e-08
1.60827e-07
8.07085e-10
1.18736e-07
-2.91795e-08
8.28532e-08
2.63588e-08
6.11724e-08
-1.69643e-08
4.22406e-08
5.61447e-08
2.87371e-08
-3.19574e-09
1.46763e-08
6.18363e-08
-1.85932e-09
-9.48326e-08
1.91603e-09
-6.26226e-07
-2.55331e-06
1.68549e-07
5.11458e-07
3.15323e-07
5.34281e-07
4.22693e-07
4.91691e-07
4.78145e-07
4.23474e-07
4.87569e-07
3.39362e-07
4.59377e-07
2.49623e-07
4.08086e-07
1.774e-07
3.47834e-07
1.07502e-07
2.85268e-07
8.04219e-08
2.33292e-07
3.00599e-08
1.85922e-07
4.81769e-08
1.52617e-07
4.12578e-09
1.25225e-07
5.37503e-08
1.0045e-07
7.81116e-09
7.82569e-08
7.83376e-08
4.73436e-08
2.77176e-08
2.32919e-08
8.5888e-08
-1.29371e-08
-5.86037e-08
-1.25409e-08
-6.26622e-07
-2.56585e-06
1.61804e-07
3.49654e-07
2.60165e-07
4.3592e-07
3.20455e-07
4.31401e-07
3.53097e-07
3.90832e-07
3.57262e-07
3.35198e-07
3.49256e-07
2.57629e-07
3.21061e-07
2.05595e-07
2.84321e-07
1.44241e-07
2.38484e-07
1.26259e-07
1.94303e-07
7.42409e-08
1.5454e-07
8.79394e-08
1.1632e-07
4.23458e-08
9.1873e-08
7.81976e-08
6.35415e-08
3.61426e-08
5.80333e-08
8.38459e-08
5.94466e-08
2.63043e-08
4.49458e-08
1.00389e-07
3.98247e-08
-5.34825e-08
1.97144e-08
-6.06512e-07
-2.54614e-06
1.50802e-07
1.98853e-07
2.61224e-07
3.25498e-07
3.41931e-07
3.50694e-07
3.70024e-07
3.62738e-07
3.68489e-07
3.36733e-07
3.34937e-07
2.91181e-07
2.96163e-07
2.44369e-07
2.54346e-07
1.86059e-07
2.2279e-07
1.57816e-07
1.89554e-07
1.07477e-07
1.70636e-07
1.06857e-07
1.48075e-07
6.49067e-08
1.40091e-07
8.6182e-08
1.27476e-07
4.87572e-08
1.05712e-07
1.05611e-07
6.40608e-08
6.7955e-08
5.61422e-08
1.08307e-07
-7.10714e-11
2.73081e-09
-3.08011e-08
-5.75781e-07
-2.57694e-06
2.63832e-07
-6.49795e-08
2.51273e-07
3.38056e-07
2.39384e-07
3.62583e-07
2.49497e-07
3.52626e-07
2.64371e-07
3.21858e-07
2.79318e-07
2.76235e-07
2.65227e-07
2.5846e-07
2.40013e-07
2.11272e-07
2.02884e-07
1.94945e-07
1.67252e-07
1.43109e-07
1.31013e-07
1.43096e-07
9.446e-08
1.01459e-07
6.61968e-08
1.14445e-07
8.83933e-09
1.06115e-07
3.63291e-08
7.8121e-08
-3.61429e-09
1.07898e-07
3.3372e-08
7.13212e-08
5.83936e-08
-2.22908e-08
2.60601e-08
-5.43448e-07
-2.55088e-06
3.45312e-07
-4.10292e-07
3.47532e-07
3.35837e-07
3.38108e-07
3.72006e-07
2.40461e-07
4.50274e-07
1.64881e-07
3.97438e-07
1.17187e-07
3.23929e-07
1.08309e-07
2.67338e-07
9.85802e-08
2.21001e-07
1.12455e-07
1.8107e-07
9.90739e-08
1.5649e-07
1.1833e-07
1.2384e-07
8.33414e-08
1.36448e-07
1.34257e-07
6.35293e-08
1.2023e-07
1.20142e-07
1.26057e-07
7.2294e-08
1.0765e-07
1.26305e-07
1.08017e-07
7.09545e-08
6.33866e-08
2.23395e-08
-1.94251e-08
-4.60636e-07
-2.57031e-06
2.17912e-07
-6.28204e-07
2.41862e-07
3.11888e-07
3.40581e-07
2.73287e-07
4.57755e-07
3.33099e-07
4.97435e-07
3.57758e-07
4.46319e-07
3.75044e-07
3.86129e-07
3.27528e-07
3.14737e-07
2.92393e-07
2.59395e-07
2.36412e-07
2.0541e-07
2.10475e-07
1.68004e-07
1.61246e-07
1.27055e-07
1.77397e-07
5.43989e-08
1.36185e-07
1.66634e-08
1.57878e-07
-8.65222e-08
1.7548e-07
-2.49657e-07
2.8944e-07
-5.02326e-08
-1.2847e-07
5.93043e-08
-8.71975e-08
5.17309e-08
-4.53063e-07
-2.51858e-06
8.44586e-08
-7.12662e-07
1.16476e-07
2.7987e-07
-1.04258e-07
4.94022e-07
-1.49895e-07
3.78736e-07
-1.74327e-07
3.82191e-07
-1.20812e-07
3.21529e-07
-1.2145e-07
3.28167e-07
-9.45442e-08
2.65487e-07
-8.59011e-08
2.27769e-07
-6.97869e-08
1.94361e-07
-7.50019e-08
1.66461e-07
-1.00567e-07
2.02962e-07
-5.50971e-08
9.07153e-08
-1.67767e-07
2.70548e-07
5.4283e-08
-4.65706e-08
1.39143e-07
2.0458e-07
3.08271e-08
-2.01541e-08
-7.64624e-08
2.00919e-08
-5.4146e-08
-4.75379e-07
-2.57272e-06
5.99889e-08
-7.72651e-07
8.85977e-08
2.51261e-07
1.08246e-07
4.74373e-07
2.45882e-07
2.411e-07
2.70906e-07
3.57166e-07
3.17773e-07
2.74663e-07
3.99776e-07
2.46163e-07
4.21582e-07
2.4368e-07
4.68277e-07
1.81074e-07
4.40904e-07
2.21734e-07
4.62704e-07
1.44661e-07
3.82802e-07
2.82864e-07
4.37929e-07
3.55888e-08
3.15348e-07
3.93129e-07
1.827e-07
8.60774e-08
1.35301e-07
2.51979e-07
7.97457e-08
3.54008e-08
4.77666e-08
5.20711e-08
6.9515e-08
-4.97128e-07
-2.50321e-06
-2.65962e-07
-5.06689e-07
-5.30842e-07
5.16141e-07
-3.40266e-07
2.83798e-07
-3.58454e-07
2.59288e-07
-3.18354e-07
3.17066e-07
-3.02696e-07
2.59005e-07
-2.8465e-07
2.28117e-07
-2.65418e-07
2.24449e-07
-2.94311e-07
2.09967e-07
-2.62143e-07
1.89566e-07
-2.85648e-07
1.68166e-07
-2.08568e-07
2.05784e-07
-2.6589e-07
9.29108e-08
-1.91667e-07
3.18905e-07
-1.22516e-07
1.6927e-08
-2.49711e-07
3.79174e-07
1.45501e-07
-3.59812e-07
1.46493e-07
5.10791e-08
3.00237e-08
-3.80658e-07
-2.47318e-06
-8.11588e-08
-4.2553e-07
2.98087e-07
1.36895e-07
2.73811e-07
3.08074e-07
2.86388e-07
2.4671e-07
3.48487e-07
2.54967e-07
3.86521e-07
2.20971e-07
4.29744e-07
1.84894e-07
4.85522e-07
1.68671e-07
5.01454e-07
1.94036e-07
5.36988e-07
1.54032e-07
5.28914e-07
1.7624e-07
5.68646e-07
1.66052e-07
5.90521e-07
7.10362e-08
5.1609e-07
3.93336e-07
6.22465e-07
-8.94481e-08
5.75576e-07
4.26063e-07
4.49174e-07
-2.3341e-07
1.97865e-07
3.02388e-07
2.32353e-07
-4.15147e-07
-2.24083e-06
-7.97903e-07
3.72373e-07
-9.13651e-07
2.52643e-07
-8.79526e-07
2.73948e-07
-7.88e-07
1.55184e-07
-7.10366e-07
1.77333e-07
-6.32379e-07
1.42984e-07
-5.93966e-07
1.46482e-07
-5.54646e-07
1.2935e-07
-4.94434e-07
1.33824e-07
-4.59917e-07
1.19514e-07
-3.76083e-07
9.24057e-08
-3.19167e-07
1.09137e-07
-3.02006e-07
5.38753e-08
-9.66709e-08
1.88e-07
-2.93557e-07
1.07438e-07
1.19513e-08
1.20555e-07
-1.90418e-07
-3.10406e-08
1.62116e-07
-5.01452e-08
6.84909e-07
-9.3794e-07
-1.55592e-06
3.72373e-07
6.25016e-07
8.98964e-07
1.05415e-06
1.23148e-06
1.37447e-06
1.52095e-06
1.6503e-06
1.78412e-06
1.90364e-06
1.99604e-06
2.10518e-06
2.15905e-06
2.34705e-06
2.45449e-06
2.57505e-06
2.54401e-06
2.49386e-06
1.55592e-06
)
;

boundaryField
{
    movingWall
    {
        type            calculated;
        value           uniform 0;
    }
    fixedWalls
    {
        type            calculated;
        value           uniform 0;
    }
    frontAndBack
    {
        type            empty;
        value           nonuniform 0();
    }
}


// ************************************************************************* //
