/*--------------------------------*- C++ -*----------------------------------*\
| =========                 |                                                 |
| \\      /  F ield         | OpenFOAM: The Open Source CFD Toolbox           |
|  \\    /   O peration     | Version:  5.x                                   |
|   \\  /    A nd           | Web:      www.OpenFOAM.org                      |
|    \\/     M anipulation  |                                                 |
\*---------------------------------------------------------------------------*/
FoamFile
{
    version     2.0;
    format      ascii;
    class       volVectorField;
    location    "7.8";
    object      U;
}
// * * * * * * * * * * * * * * * * * * * * * * * * * * * * * * * * * * * * * //

dimensions      [0 1 -1 0 0 0 0];

internalField   nonuniform List<vector> 
400
(
(-0.0104564 0.00719144 0)
(-0.0240747 0.0146676 0)
(-0.0454083 0.0159398 0)
(-0.0583658 -0.00130997 0)
(-0.05479 0.00039368 0)
(-0.0618403 0.00286363 0)
(-0.0562155 -0.00726779 0)
(-0.0474621 0.000123974 0)
(-0.0518523 0.0058948 0)
(-0.0504413 -0.00351068 0)
(-0.0430328 -0.00656532 0)
(-0.041002 -0.00115955 0)
(-0.0434747 0.000895321 0)
(-0.0449553 -0.00160718 0)
(-0.0455353 -0.00281494 0)
(-0.0449882 -0.00259464 0)
(-0.0449807 -0.00293697 0)
(-0.040906 -0.00616744 0)
(-0.0381958 -0.0100412 0)
(-0.00645786 -0.0178365 0)
(-0.013952 0.0253776 0)
(-0.0307662 0.0185287 0)
(-0.0368661 0.0158403 0)
(-0.0417197 0.010573 0)
(-0.0454978 0.00385268 0)
(-0.0445053 -0.00194271 0)
(-0.0396945 -0.006086 0)
(-0.0368653 -0.00624487 0)
(-0.0309681 -0.00502857 0)
(-0.0241072 -0.00454439 0)
(-0.0216679 -0.00232913 0)
(-0.0198693 0.000362675 0)
(-0.0187067 0.00277314 0)
(-0.0161873 0.00260478 0)
(-0.0185943 0.00345961 0)
(-0.0173331 0.00108331 0)
(-0.0221468 0.000539977 0)
(-0.017577 -0.00750015 0)
(-0.0255456 -0.017015 0)
(-0.00376692 -0.0379333 0)
(-0.00415351 0.044145 0)
(-0.0106783 0.0348011 0)
(-0.0153978 0.0247082 0)
(-0.0172528 0.0127893 0)
(-0.0173221 0.00299058 0)
(-0.0165659 -0.0044513 0)
(-0.0151322 -0.0101871 0)
(-0.0134194 -0.0114287 0)
(-0.0115933 -0.0103722 0)
(-0.00930047 -0.010145 0)
(-0.00909394 -0.00829387 0)
(-0.00667373 -0.00594014 0)
(-0.0070151 -0.00259996 0)
(-0.00233877 -0.00213057 0)
(-0.00553299 0.000717669 0)
(0.000776294 -0.00131527 0)
(-0.00484648 0.000556945 0)
(0.00252445 -0.00379088 0)
(-0.00769578 -0.0117532 0)
(-0.000275197 -0.043897 0)
(0.00231486 0.046121 0)
(0.00514249 0.0373666 0)
(0.00612613 0.0269182 0)
(0.00688733 0.0155015 0)
(0.00701147 0.00509993 0)
(0.00635893 -0.00310282 0)
(0.00493606 -0.00816059 0)
(0.0034186 -0.00972682 0)
(0.00143103 -0.00930386 0)
(0.00122786 -0.00797437 0)
(-0.000858718 -0.00566223 0)
(-0.000171865 -0.0035596 0)
(-0.00226121 -0.000676035 0)
(0.000168994 -0.000374723 0)
(-0.00245132 0.00135118 0)
(0.00103989 -0.000879871 0)
(-0.00296212 -0.000578786 0)
(0.00144308 -0.00612616 0)
(-0.0064244 -0.0133399 0)
(0.00192689 -0.0478669 0)
(0.00442762 0.0369466 0)
(0.0111137 0.0314376 0)
(0.0151182 0.0233595 0)
(0.017092 0.0139346 0)
(0.0170035 0.00502806 0)
(0.0154671 -0.00197265 0)
(0.0124171 -0.00640794 0)
(0.00906093 -0.00803532 0)
(0.00533746 -0.00778037 0)
(0.00329796 -0.00673614 0)
(0.000221741 -0.00527814 0)
(0.000502987 -0.00400021 0)
(-0.00186658 -0.00198793 0)
(0.000998744 -0.00200576 0)
(-0.00179244 0.000265211 0)
(0.00244351 -0.00136015 0)
(-0.00197796 0.000655311 0)
(0.00200488 -0.00245294 0)
(-0.00338379 -0.0110019 0)
(0.00215613 -0.0491828 0)
(0.00406507 0.0273684 0)
(0.010851 0.0245015 0)
(0.0153203 0.018981 0)
(0.0176318 0.0124035 0)
(0.0176656 0.00601701 0)
(0.0161277 0.000932442 0)
(0.0131764 -0.00247707 0)
(0.0102339 -0.00412826 0)
(0.00682734 -0.00440859 0)
(0.00523316 -0.00412925 0)
(0.0022559 -0.00319448 0)
(0.00295101 -0.00245783 0)
(-0.000171973 -0.00105312 0)
(0.00232179 -0.00092284 0)
(-0.00139417 0.000362534 0)
(0.00250485 -0.000730293 0)
(-0.00241244 0.000275472 0)
(0.00254887 -0.00420464 0)
(-0.00425264 -0.0132072 0)
(0.00394651 -0.0505186 0)
(0.00302392 0.020469 0)
(0.00842938 0.0192333 0)
(0.0123944 0.0156861 0)
(0.0146364 0.0110806 0)
(0.0150188 0.0065811 0)
(0.0140854 0.00263143 0)
(0.0119767 -0.000123388 0)
(0.00978782 -0.00190538 0)
(0.00710887 -0.00243333 0)
(0.00580988 -0.00283644 0)
(0.00308164 -0.00201893 0)
(0.00378487 -0.002231 0)
(0.000596365 -0.000733996 0)
(0.00320015 -0.00152919 0)
(-0.000812933 0.00042302 0)
(0.00319877 -0.00104872 0)
(-0.00226492 0.000612443 0)
(0.00260848 -0.00186677 0)
(-0.00382135 -0.0116822 0)
(0.00294733 -0.0505642 0)
(0.00224661 0.0154989 0)
(0.00636745 0.0149094 0)
(0.0093354 0.0126752 0)
(0.0112034 0.00986033 0)
(0.0116819 0.00678332 0)
(0.0112118 0.00414171 0)
(0.00983604 0.0021004 0)
(0.00848826 0.000624111 0)
(0.00623039 1.63661e-07 0)
(0.00566434 -0.000552661 0)
(0.00277872 -0.000183675 0)
(0.00407709 -0.000394786 0)
(0.000245022 0.000422953 0)
(0.0034648 0.000178237 0)
(-0.0013917 0.00118206 0)
(0.00341297 0.000522496 0)
(-0.00255708 0.0014112 0)
(0.00337025 -0.00220809 0)
(-0.00354237 -0.0131009 0)
(0.00368647 -0.0509274 0)
(0.0016962 0.0117662 0)
(0.0048512 0.0123904 0)
(0.00752387 0.0111627 0)
(0.0091598 0.0090335 0)
(0.00977317 0.00684343 0)
(0.00964597 0.00438611 0)
(0.00869171 0.00266808 0)
(0.00775026 0.00107338 0)
(0.00606627 0.000593713 0)
(0.00565536 -0.000453109 0)
(0.00333903 0.000189097 0)
(0.00448295 -0.000943028 0)
(0.00122128 0.000502725 0)
(0.00418902 -0.00100231 0)
(-0.000567425 0.000892813 0)
(0.00407912 -0.000716866 0)
(-0.00251253 0.000901457 0)
(0.00370132 -0.00193536 0)
(-0.00443531 -0.0124296 0)
(0.00412218 -0.0518461 0)
(0.00173217 0.00861565 0)
(0.00449595 0.00877809 0)
(0.00578431 0.00832794 0)
(0.00684758 0.00768097 0)
(0.00714716 0.00660499 0)
(0.00719701 0.00578516 0)
(0.00666676 0.004701 0)
(0.00639239 0.0035294 0)
(0.00476262 0.00289893 0)
(0.00511238 0.00184528 0)
(0.00228986 0.00195841 0)
(0.00429576 0.00118199 0)
(-4.75964e-05 0.00186658 0)
(0.0041281 0.00142072 0)
(-0.00196127 0.00247967 0)
(0.00467427 0.00202406 0)
(-0.00272822 0.00274907 0)
(0.00492937 -0.000147841 0)
(-0.00373376 -0.0119144 0)
(0.00476613 -0.0505953 0)
(0.00169581 0.00546625 0)
(0.00405021 0.00898171 0)
(0.00631169 0.00909601 0)
(0.00727043 0.00809775 0)
(0.00747433 0.00660301 0)
(0.00720355 0.0041715 0)
(0.00618606 0.00315161 0)
(0.00574045 0.00184717 0)
(0.00434326 0.00178088 0)
(0.00477967 0.000799955 0)
(0.00255141 0.00123932 0)
(0.00459294 0.000256959 0)
(0.000977612 0.000961116 0)
(0.00502043 -0.000221804 0)
(-0.000358276 0.000578925 0)
(0.00504424 -0.00117283 0)
(-0.00289133 0.00102247 0)
(0.00558749 -0.00220126 0)
(-0.00570883 -0.0132035 0)
(0.00482385 -0.0512698 0)
(0.00387241 0.00286915 0)
(0.00606554 0.00388497 0)
(0.00435321 0.00477105 0)
(0.00499956 0.00612875 0)
(0.00511591 0.00700099 0)
(0.0056165 0.00787435 0)
(0.00536603 0.00703109 0)
(0.00547618 0.00605455 0)
(0.00388081 0.00495025 0)
(0.00453194 0.00390703 0)
(0.00184031 0.00340515 0)
(0.00372939 0.00267691 0)
(-0.000266383 0.00284161 0)
(0.00321723 0.00248311 0)
(-0.00299086 0.00405384 0)
(0.00474012 0.00423568 0)
(-0.00499229 0.00357493 0)
(0.00667577 0.00235236 0)
(-0.0048039 -0.00877278 0)
(0.00610799 -0.0514142 0)
(0.00612365 -0.0054899 0)
(0.00692219 0.0102369 0)
(0.00754409 0.00979739 0)
(0.0058789 0.00837817 0)
(0.00369271 0.00581561 0)
(0.00276025 0.00273147 0)
(0.00204916 0.00282815 0)
(0.0022284 0.00186019 0)
(0.00179301 0.00236091 0)
(0.0027597 0.00133294 0)
(0.0011128 0.00188478 0)
(0.0037829 0.000949806 0)
(-0.000641054 0.0012995 0)
(0.00634414 0.0012838 0)
(-0.00196424 -0.00137498 0)
(0.0075188 -0.000373181 0)
(-0.00373607 -0.000958029 0)
(0.00870413 -0.00339354 0)
(-0.00677154 -0.0143478 0)
(0.00631251 -0.0510997 0)
(0.00108409 -0.0113591 0)
(0.00657852 0.00217332 0)
(0.0042386 0.00530057 0)
(0.00845356 0.00906326 0)
(0.0102784 0.00984622 0)
(0.00974372 0.0105355 0)
(0.00804727 0.00825276 0)
(0.00762948 0.00750672 0)
(0.00470416 0.00533148 0)
(0.00591496 0.00543078 0)
(0.00204987 0.00345348 0)
(0.00489935 0.00502067 0)
(-3.04183e-05 0.0015578 0)
(0.00232769 0.00404947 0)
(-0.00163918 0.00479609 0)
(-0.00160996 0.00595742 0)
(-0.00916154 0.00416877 0)
(0.00756995 0.00450006 0)
(-0.00559363 -0.00242903 0)
(0.00792768 -0.050512 0)
(-0.00623003 -0.0130295 0)
(0.00915952 0.011061 0)
(-0.00389791 0.0054539 0)
(-0.000686252 0.00447269 0)
(-0.00518069 0.00439307 0)
(-0.0015902 0.00413066 0)
(-0.00307392 0.00471224 0)
(-0.00201657 0.00367952 0)
(-0.00158166 0.00374923 0)
(-0.00205611 0.00244636 0)
(-0.000504769 0.00266746 0)
(-0.00279092 0.00147732 0)
(-0.000852783 0.00357134 0)
(-0.00154443 0.00173557 0)
(-0.00552076 0.00133981 0)
(0.00804115 0.00465698 0)
(-0.00323683 -0.0100672 0)
(0.00491103 -0.00841732 0)
(-0.00871265 -0.0175184 0)
(0.00711224 -0.0521219 0)
(0.000389285 -0.0176822 0)
(0.00234426 0.000420237 0)
(0.00123374 0.0137801 0)
(0.0029286 0.0103412 0)
(0.00642326 0.0106065 0)
(0.00505009 0.00907431 0)
(0.00705526 0.00808 0)
(0.00940541 0.00721732 0)
(0.00701109 0.00542093 0)
(0.0121834 0.00575703 0)
(0.00502409 0.00423412 0)
(0.0139278 0.0072343 0)
(0.0012986 0.000144721 0)
(0.0154333 0.00958116 0)
(-0.00216354 -0.0028172 0)
(0.00977556 0.00450748 0)
(-0.00474776 0.00963401 0)
(0.00816555 0.0094005 0)
(-0.00650041 0.000420221 0)
(0.00962731 -0.0492149 0)
(0.00166992 -0.0106208 0)
(-0.0136089 0.00975582 0)
(-0.00614747 0.0056662 0)
(-0.00705776 -0.000276932 0)
(-0.00804818 0.00400575 0)
(-0.00397724 0.00198259 0)
(-0.00872612 0.00199719 0)
(-0.00219679 0.00260147 0)
(-0.00875704 0.00194231 0)
(-0.00290235 0.00271109 0)
(-0.00782087 0.00118941 0)
(-0.00367932 0.00339422 0)
(-0.0041882 0.00116986 0)
(-0.00733495 0.00531095 0)
(0.000589106 0.00608398 0)
(-0.00607907 0.00461034 0)
(-0.00462778 -0.0087063 0)
(0.011398 -0.00761292 0)
(-0.00667209 -0.0225562 0)
(0.00837464 -0.0537032 0)
(-0.0094028 -0.0109152 0)
(0.00531477 0.00980672 0)
(0.00793838 0.00575682 0)
(0.00295448 0.0104203 0)
(0.00787164 0.00840431 0)
(0.00673409 0.00817989 0)
(0.00813189 0.00689689 0)
(0.00950721 0.00624457 0)
(0.00947092 0.00639327 0)
(0.0109186 0.00521818 0)
(0.0103239 0.00605886 0)
(0.0112961 0.00537834 0)
(0.0109841 0.00294154 0)
(0.0128798 0.0082049 0)
(0.0083582 -0.00550144 0)
(0.0151351 0.0104977 0)
(0.00882235 -0.00458006 0)
(0.00977653 0.0101482 0)
(-0.00227041 0.00948964 0)
(0.0124231 -0.0455171 0)
(-0.0211319 -0.00482507 0)
(-0.0127807 -0.00367538 0)
(-0.0225724 0.00588444 0)
(-0.0117102 -0.000637289 0)
(-0.0197338 0.00199644 0)
(-0.00857278 0.000795375 0)
(-0.0169524 0.000807733 0)
(-0.00696019 0.000628156 0)
(-0.01542 0.00127613 0)
(-0.00397888 0.000692878 0)
(-0.0151994 0.000398386 0)
(0.00125521 0.000983655 0)
(-0.0153002 -0.000642669 0)
(0.00459481 0.00701299 0)
(-0.00912112 0.00152348 0)
(-0.00308346 0.00636803 0)
(0.00380517 -0.00449131 0)
(-0.0126117 -1.48494e-06 0)
(0.0184458 -0.0290003 0)
(0.012313 -0.0507158 0)
(0.00088455 0.018148 0)
(0.0147999 0.0135371 0)
(0.0110892 0.00598331 0)
(0.0228734 0.00655003 0)
(0.0212803 0.00538257 0)
(0.0267775 0.0049663 0)
(0.0283421 0.00485089 0)
(0.0319356 0.00450516 0)
(0.0347011 0.00425755 0)
(0.0357808 0.00425323 0)
(0.0408543 0.00369653 0)
(0.0386375 0.00348872 0)
(0.0459459 0.00329316 0)
(0.0425973 0.000969246 0)
(0.0487258 0.00332175 0)
(0.0494758 -0.00106917 0)
(0.0503418 0.00308653 0)
(0.0522887 -0.00112903 0)
(0.0423924 -0.00349882 0)
(0.0276857 -0.00277262 0)
)
;

boundaryField
{
    movingWall
    {
        type            fixedValue;
        value           uniform (1 0 0);
    }
    fixedWalls
    {
        type            noSlip;
    }
    frontAndBack
    {
        type            empty;
    }
}


// ************************************************************************* //
