/*--------------------------------*- C++ -*----------------------------------*\
| =========                 |                                                 |
| \\      /  F ield         | OpenFOAM: The Open Source CFD Toolbox           |
|  \\    /   O peration     | Version:  5.x                                   |
|   \\  /    A nd           | Web:      www.OpenFOAM.org                      |
|    \\/     M anipulation  |                                                 |
\*---------------------------------------------------------------------------*/
FoamFile
{
    version     2.0;
    format      ascii;
    class       volScalarField;
    location    "19.4";
    object      p;
}
// * * * * * * * * * * * * * * * * * * * * * * * * * * * * * * * * * * * * * //

dimensions      [0 2 -2 0 0 0 0];

internalField   nonuniform List<scalar> 
400
(
-3.95352e-10
-0.000764843
-0.00133653
-0.00170427
-0.00189257
-0.00200781
-0.00207006
-0.0021053
-0.00211173
-0.00211557
-0.00211594
-0.00211535
-0.00209594
-0.00205069
-0.0019791
-0.00187013
-0.00169441
-0.00136175
-0.000869043
0.000411147
-0.00082334
-0.0013348
-0.00169377
-0.00188834
-0.00199327
-0.00204619
-0.00208238
-0.00209866
-0.00210054
-0.00210469
-0.00211262
-0.00212893
-0.00212766
-0.00212151
-0.00209464
-0.00204543
-0.00197797
-0.00176936
-0.00160045
-0.000641378
-0.00135533
-0.00171789
-0.00187984
-0.00198703
-0.00203097
-0.00206679
-0.00209427
-0.00211268
-0.00211942
-0.00211891
-0.00211777
-0.00212278
-0.00211955
-0.00207862
-0.00205801
-0.00194317
-0.00198492
-0.00181747
-0.00174917
-0.00133974
-0.00169909
-0.00191155
-0.00198515
-0.00203681
-0.00206104
-0.00208183
-0.00209678
-0.00210871
-0.00210386
-0.00210378
-0.00211154
-0.00212288
-0.00213168
-0.00210639
-0.00212067
-0.0021004
-0.00210353
-0.0019231
-0.00196209
-0.00172415
-0.00187843
-0.00201259
-0.00203426
-0.00206046
-0.00207482
-0.00208419
-0.00209926
-0.00210674
-0.00211439
-0.00211382
-0.00211523
-0.00210932
-0.00213432
-0.00210053
-0.00211399
-0.00210827
-0.00206908
-0.00195178
-0.00195597
-0.00187722
-0.00198176
-0.00203981
-0.00204975
-0.00206585
-0.00207396
-0.00208608
-0.0020938
-0.00210476
-0.00210894
-0.00210726
-0.00212138
-0.00211698
-0.00212074
-0.00208419
-0.0020995
-0.00209954
-0.00206633
-0.00196622
-0.00205767
-0.00196002
-0.00202186
-0.00205325
-0.0020629
-0.00207292
-0.00208217
-0.00208919
-0.00210015
-0.0021047
-0.0021171
-0.00211409
-0.00214326
-0.00211662
-0.00214888
-0.002073
-0.00210465
-0.00209773
-0.00208006
-0.00202773
-0.00203416
-0.00204873
-0.0020512
-0.00207466
-0.00207406
-0.00208225
-0.00208433
-0.00208909
-0.00209156
-0.00210412
-0.00211421
-0.00213076
-0.0021313
-0.00211235
-0.00209948
-0.00211569
-0.00216674
-0.00210556
-0.00215676
-0.00214347
-0.00212501
-0.00212262
-0.00207703
-0.00208807
-0.00208045
-0.00209235
-0.0020946
-0.0020951
-0.0021005
-0.00210765
-0.00212316
-0.00215038
-0.00215092
-0.00214788
-0.00215116
-0.00217782
-0.00224011
-0.00212514
-0.00227072
-0.00215913
-0.00214309
-0.00208585
-0.00209513
-0.00210825
-0.00210049
-0.00211025
-0.00209898
-0.00209745
-0.00209535
-0.00210874
-0.00211183
-0.00211633
-0.00210649
-0.00212313
-0.00211419
-0.00208983
-0.00217834
-0.0021373
-0.00211293
-0.00210778
-0.00214476
-0.00205219
-0.00212074
-0.00214985
-0.00211999
-0.00213734
-0.00211799
-0.00210755
-0.0021056
-0.00211088
-0.00211824
-0.00213765
-0.00214589
-0.00216673
-0.00216916
-0.00221617
-0.00218052
-0.00214381
-0.00208248
-0.00209354
-0.00215559
-0.00208236
-0.00213203
-0.00214222
-0.00211532
-0.00213326
-0.00212037
-0.00209565
-0.00211348
-0.00211319
-0.00208527
-0.00210513
-0.00213746
-0.00215712
-0.00217014
-0.00221967
-0.00218915
-0.00216908
-0.00218257
-0.00212097
-0.00218918
-0.00210686
-0.00213406
-0.00217906
-0.00213019
-0.00217031
-0.00213401
-0.00212807
-0.00214149
-0.00209148
-0.00209384
-0.00212088
-0.00213796
-0.00217793
-0.00219005
-0.0021765
-0.00223119
-0.00212145
-0.00221769
-0.0020943
-0.00217188
-0.00197459
-0.00212492
-0.00217466
-0.0021468
-0.00217772
-0.00213179
-0.00216933
-0.00214325
-0.00206689
-0.00204964
-0.00208425
-0.00213936
-0.00215907
-0.00213189
-0.00221092
-0.00235903
-0.00212302
-0.00215649
-0.00202145
-0.00204406
-0.00193306
-0.00208408
-0.00215638
-0.00216278
-0.00222934
-0.00216749
-0.00220486
-0.00218941
-0.00213441
-0.00211551
-0.00214317
-0.0021473
-0.00218974
-0.00216162
-0.00227246
-0.00240234
-0.00218817
-0.00217528
-0.00193382
-0.00209421
-0.00199951
-0.001998
-0.00211893
-0.00220776
-0.00217366
-0.00217846
-0.00217574
-0.00216898
-0.00209549
-0.00217554
-0.00213507
-0.00217271
-0.00219296
-0.00213842
-0.00214631
-0.00201763
-0.00195028
-0.00218419
-0.001982
-0.0019843
-0.00198854
-0.00180377
-0.0019877
-0.00213236
-0.00222618
-0.00216372
-0.00217435
-0.00214433
-0.00209449
-0.0021669
-0.00220333
-0.00221455
-0.00218256
-0.00214109
-0.00211554
-0.00213903
-0.00209777
-0.00210547
-0.00216591
-0.0021006
-0.0017346
-0.00146729
-0.0017671
-0.00205725
-0.00214273
-0.00218143
-0.00212612
-0.00210737
-0.00216616
-0.00226016
-0.00235343
-0.00238153
-0.00212853
-0.00205683
-0.00209177
-0.00207641
-0.00208913
-0.00185233
-0.00174547
-0.00153639
-0.0012993
-0.00095294
-0.00136215
-0.001769
-0.00198478
-0.00198828
-0.00191466
-0.00183478
-0.00202435
-0.00249855
-0.00261956
-0.0025163
-0.00209242
-0.00205522
-0.00196072
-0.00196844
-0.00212198
-0.00192301
-0.0020634
-0.00182029
-0.00094519
-0.000388876
-0.000911787
-0.00145279
-0.00184067
-0.00203846
-0.00208526
-0.00204315
-0.00206158
-0.00212323
-0.00213727
-0.00205798
-0.00203099
-0.00205894
-0.00199243
-0.00198946
-0.00192865
-0.00191607
-0.00149382
-0.000611176
0.0013833
)
;

boundaryField
{
    movingWall
    {
        type            zeroGradient;
    }
    fixedWalls
    {
        type            zeroGradient;
    }
    frontAndBack
    {
        type            empty;
    }
}


// ************************************************************************* //
