/*--------------------------------*- C++ -*----------------------------------*\
| =========                 |                                                 |
| \\      /  F ield         | OpenFOAM: The Open Source CFD Toolbox           |
|  \\    /   O peration     | Version:  5.x                                   |
|   \\  /    A nd           | Web:      www.OpenFOAM.org                      |
|    \\/     M anipulation  |                                                 |
\*---------------------------------------------------------------------------*/
FoamFile
{
    version     2.0;
    format      ascii;
    class       volScalarField;
    location    "8.7";
    object      p;
}
// * * * * * * * * * * * * * * * * * * * * * * * * * * * * * * * * * * * * * //

dimensions      [0 2 -2 0 0 0 0];

internalField   nonuniform List<scalar> 
400
(
1.37624e-10
-0.000406885
-0.000928564
-0.00122542
-0.00130664
-0.00130582
-0.00124358
-0.00121334
-0.0012781
-0.00123194
-0.00119653
-0.00123935
-0.00124487
-0.00123637
-0.00123662
-0.00118784
-0.00107478
-0.000863148
-0.000654091
0.000246097
-0.000368594
-0.000749831
-0.00119709
-0.00142912
-0.00143755
-0.00138109
-0.00127454
-0.00120374
-0.00130876
-0.00126194
-0.0011863
-0.00123285
-0.0012637
-0.00124091
-0.00125632
-0.0012342
-0.00122933
-0.00116093
-0.00108149
-0.000477072
-0.000832373
-0.00115907
-0.00153041
-0.00167081
-0.00161047
-0.00146213
-0.00133179
-0.00125603
-0.00124475
-0.00122028
-0.00121299
-0.00122089
-0.0012533
-0.00123332
-0.00125568
-0.00123531
-0.00123281
-0.00120552
-0.00115783
-0.000885659
-0.00130225
-0.00159136
-0.00189845
-0.0019476
-0.00179755
-0.0015793
-0.00141576
-0.00131075
-0.00128098
-0.00125845
-0.00123848
-0.00123003
-0.00124382
-0.0012283
-0.0012372
-0.00122146
-0.00122734
-0.00120254
-0.0012352
-0.0011201
-0.00162745
-0.00186708
-0.00211001
-0.00208506
-0.00187563
-0.00162535
-0.00144847
-0.00133939
-0.00129194
-0.00125633
-0.00124388
-0.00122848
-0.0012443
-0.00122689
-0.00124742
-0.00123037
-0.0012507
-0.00123803
-0.0012534
-0.00118523
-0.00174599
-0.00193995
-0.00213793
-0.00208598
-0.00185176
-0.00161126
-0.00144835
-0.00134566
-0.0012984
-0.00125897
-0.00124996
-0.001227
-0.00123655
-0.00121639
-0.00122984
-0.00120774
-0.00123003
-0.00119596
-0.00123653
-0.00119717
-0.00164113
-0.00180051
-0.00196075
-0.00191547
-0.00171683
-0.00153014
-0.00140506
-0.00132618
-0.00128745
-0.00125486
-0.00124789
-0.00122828
-0.00123817
-0.00121986
-0.00123777
-0.0012158
-0.0012396
-0.00121249
-0.00124389
-0.0012005
-0.0013831
-0.00151829
-0.0016628
-0.00166004
-0.00154498
-0.00142836
-0.00134935
-0.00129515
-0.00126716
-0.00123929
-0.00123539
-0.00121417
-0.00122456
-0.00120304
-0.00122063
-0.00119441
-0.00122323
-0.00118245
-0.00122444
-0.00119169
-0.00110005
-0.00122821
-0.00136265
-0.00139794
-0.0013698
-0.00132619
-0.00129019
-0.00126224
-0.00124706
-0.00123177
-0.00123091
-0.00121712
-0.00122761
-0.00120972
-0.00122779
-0.00120029
-0.00122928
-0.00119256
-0.00123117
-0.00118494
-0.000897656
-0.00104112
-0.00116875
-0.00123233
-0.00124903
-0.00124078
-0.00123176
-0.00122068
-0.00121402
-0.00120356
-0.00120514
-0.00118968
-0.0012012
-0.00118522
-0.00120701
-0.00118167
-0.00121545
-0.00117065
-0.0012153
-0.00117612
-0.000827372
-0.000976153
-0.00108333
-0.0011492
-0.00118754
-0.00120691
-0.00121268
-0.00121186
-0.00121431
-0.00120991
-0.00121495
-0.00121004
-0.00121821
-0.00120443
-0.00121978
-0.00118932
-0.00122247
-0.00117496
-0.00123399
-0.00117413
-0.000839067
-0.00099443
-0.00105797
-0.00110819
-0.00113738
-0.00114959
-0.00116363
-0.00116563
-0.00117092
-0.0011674
-0.00117499
-0.00116872
-0.00117691
-0.00116839
-0.00118717
-0.00116793
-0.00121398
-0.0011595
-0.00121464
-0.00115033
-0.000978768
-0.00107564
-0.0010827
-0.00110449
-0.00112898
-0.00115927
-0.00117352
-0.00118286
-0.00118549
-0.00118921
-0.00119118
-0.00119475
-0.00120406
-0.00119489
-0.00122132
-0.00117507
-0.00121279
-0.0011638
-0.00123441
-0.00114134
-0.00106915
-0.00116406
-0.00108606
-0.00112458
-0.00114101
-0.0011517
-0.00115923
-0.00115554
-0.00115486
-0.00115315
-0.00115875
-0.00116298
-0.00116394
-0.00116181
-0.00115124
-0.00117175
-0.00120618
-0.00111826
-0.00117374
-0.00114832
-0.00110346
-0.00114429
-0.00112002
-0.00112088
-0.00112768
-0.0011284
-0.00113409
-0.0011443
-0.00115299
-0.00116566
-0.00116372
-0.00119169
-0.00116589
-0.00120399
-0.00121763
-0.0011969
-0.00126569
-0.00118407
-0.00128795
-0.00118276
-0.00128029
-0.00120053
-0.00114711
-0.0011438
-0.00114763
-0.00112241
-0.00115116
-0.00113753
-0.00115635
-0.00115163
-0.00116231
-0.0011618
-0.00116736
-0.00120433
-0.00117061
-0.00115511
-0.00115832
-0.0011555
-0.00118485
-0.00113505
-0.0010489
-0.00120114
-0.00114889
-0.00112989
-0.00113701
-0.0011238
-0.00113742
-0.00112609
-0.00115678
-0.00114406
-0.00118697
-0.00116196
-0.00117007
-0.00120385
-0.00113806
-0.0012275
-0.00124342
-0.00116013
-0.00127029
-0.00106508
-0.00100972
-0.0011756
-0.00115026
-0.00113034
-0.00112567
-0.00112089
-0.00112987
-0.00113822
-0.00114603
-0.00114616
-0.00115458
-0.00112903
-0.00115857
-0.00115486
-0.00117834
-0.00124685
-0.00120017
-0.00109557
-0.00104698
-0.000905163
-0.000992529
-0.00111873
-0.00114576
-0.00114447
-0.00111993
-0.0011104
-0.00112664
-0.00113038
-0.00114006
-0.00114525
-0.00117497
-0.00113525
-0.00119758
-0.00113964
-0.00119903
-0.00124143
-0.00116027
-0.00128184
-0.0010573
-0.000645344
-0.00113549
-0.00111573
-0.00108522
-0.00113852
-0.00108805
-0.00111603
-0.00112538
-0.00111957
-0.00113735
-0.00114131
-0.00113015
-0.00114294
-0.00111197
-0.00109937
-0.001142
-0.00115421
-0.00116985
-0.000940752
-0.000470584
0.00075644
)
;

boundaryField
{
    movingWall
    {
        type            zeroGradient;
    }
    fixedWalls
    {
        type            zeroGradient;
    }
    frontAndBack
    {
        type            empty;
    }
}


// ************************************************************************* //
