/*--------------------------------*- C++ -*----------------------------------*\
| =========                 |                                                 |
| \\      /  F ield         | OpenFOAM: The Open Source CFD Toolbox           |
|  \\    /   O peration     | Version:  5.x                                   |
|   \\  /    A nd           | Web:      www.OpenFOAM.org                      |
|    \\/     M anipulation  |                                                 |
\*---------------------------------------------------------------------------*/
FoamFile
{
    version     2.0;
    format      ascii;
    class       volVectorField;
    location    "11.7";
    object      U;
}
// * * * * * * * * * * * * * * * * * * * * * * * * * * * * * * * * * * * * * //

dimensions      [0 1 -1 0 0 0 0];

internalField   nonuniform List<vector> 
400
(
(-0.0100028 0.00198218 0)
(-0.0323347 0.0077178 0)
(-0.0385071 6.86019e-05 0)
(-0.043877 0.00206727 0)
(-0.0450788 -0.00131377 0)
(-0.0474912 -0.000174281 0)
(-0.0463886 -0.00101001 0)
(-0.0483835 -0.000513498 0)
(-0.048592 -0.0016733 0)
(-0.0467002 -0.00179531 0)
(-0.0480475 -0.000349886 0)
(-0.0475364 -0.00110157 0)
(-0.0475389 -0.000290394 0)
(-0.0481992 -0.000365735 0)
(-0.0496199 0.000256326 0)
(-0.0484228 -0.0014615 0)
(-0.0469791 -0.00313407 0)
(-0.0396341 -0.00537611 0)
(-0.0425984 -0.00829847 0)
(-0.000350046 -0.0148879 0)
(-0.0108913 0.0324903 0)
(-0.0205627 0.0219804 0)
(-0.0159936 0.00913934 0)
(-0.0242725 0.00558053 0)
(-0.0175818 0.00270753 0)
(-0.0235387 0.0021972 0)
(-0.019395 0.00128579 0)
(-0.0214768 0.00152351 0)
(-0.0206264 0.000900719 0)
(-0.0196368 0.000846818 0)
(-0.02041 0.00124584 0)
(-0.018504 0.000683306 0)
(-0.0200727 0.00180488 0)
(-0.0166197 -0.000126941 0)
(-0.0215889 0.00070483 0)
(-0.0166638 -0.00192729 0)
(-0.025398 -0.00189205 0)
(-0.0158545 -0.0100533 0)
(-0.0310818 -0.0218678 0)
(-0.00192593 -0.0398088 0)
(-0.00450555 0.0390192 0)
(-0.00904639 0.0208492 0)
(-0.00561092 0.00661417 0)
(-0.00887038 0.00380552 0)
(-0.00535537 -0.000209159 0)
(-0.00768237 0.000122531 0)
(-0.00560002 -0.00128386 0)
(-0.00600937 -0.00111601 0)
(-0.0058671 -0.00164294 0)
(-0.0043002 -0.00258405 0)
(-0.00644473 -0.00141417 0)
(-0.00211728 -0.00235236 0)
(-0.00741474 -0.00101249 0)
(-0.00036458 -0.000974235 0)
(-0.00938016 0.00166254 0)
(-8.29118e-05 0.000815063 0)
(-0.0118916 0.000878875 0)
(0.00277595 -0.0021974 0)
(-0.00865804 -0.00732755 0)
(0.00129387 -0.0453297 0)
(-0.00213795 0.0385632 0)
(-0.00319098 0.0240109 0)
(-0.00232662 0.00729614 0)
(-0.00259477 0.0042798 0)
(-0.00216538 0.00183073 0)
(-0.00416481 0.00173398 0)
(-0.00347277 0.000281383 0)
(-0.00426496 0.000817713 0)
(-0.00442192 0.000187694 0)
(-0.00371846 0.000225305 0)
(-0.00535425 0.000269454 0)
(-0.00317084 0.000779777 0)
(-0.00617871 0.00118928 0)
(-0.00253503 0.00104314 0)
(-0.00635117 0.00187029 0)
(-0.000887675 -0.000772556 0)
(-0.00311601 -0.0038652 0)
(-0.000518737 -0.0160561 0)
(-0.0104974 -0.0230123 0)
(0.00262867 -0.0521741 0)
(-0.0027481 0.0467149 0)
(-0.000965339 0.0238816 0)
(0.000143772 0.00630799 0)
(-0.00120077 0.0034886 0)
(-0.00254718 0.00207535 0)
(-0.00416601 0.000996226 0)
(-0.00458653 -0.000586811 0)
(-0.00464108 -0.000690775 0)
(-0.00500994 -0.00166982 0)
(-0.00305595 -0.00201221 0)
(-0.00514419 -0.00172351 0)
(-0.000796712 -0.00217464 0)
(-0.00441805 -0.000854866 0)
(0.00184172 -0.00208443 0)
(-0.00244732 0.000594751 0)
(0.00467942 -0.00348875 0)
(0.000173113 0.000684311 0)
(0.00463265 0.00383025 0)
(-0.0018733 -0.00430081 0)
(0.00359355 -0.0500605 0)
(-0.000334656 0.0424749 0)
(0.000713755 0.0202012 0)
(-0.00180611 0.00630484 0)
(-0.00268037 0.00593628 0)
(-0.00387667 0.00435849 0)
(-0.00473006 0.00325946 0)
(-0.00553808 0.00110509 0)
(-0.00477772 0.000625298 0)
(-0.00565467 -0.000587182 0)
(-0.00327688 -0.000608181 0)
(-0.00542067 -0.000826104 0)
(-0.00182157 -0.000769202 0)
(-0.00496747 -0.000492391 0)
(-0.00052197 -0.000963874 0)
(-0.00438142 -0.000373746 0)
(0.000904952 -0.00299385 0)
(-0.00588903 -0.00285233 0)
(0.0035026 -0.0135358 0)
(-0.00628543 -0.0241387 0)
(0.00367182 -0.0546388 0)
(-0.00313075 0.0443217 0)
(0.00304599 0.0248111 0)
(0.000284784 0.0113527 0)
(-0.00224718 0.00592174 0)
(-0.0051252 0.00526622 0)
(-0.00621188 0.00276902 0)
(-0.00691922 6.84126e-05 0)
(-0.00589761 -0.000989699 0)
(-0.00637431 -0.00268788 0)
(-0.00317855 -0.00273487 0)
(-0.00547059 -0.00293224 0)
(-0.000115335 -0.00342692 0)
(-0.00445989 -0.00185794 0)
(0.00278728 -0.00387711 0)
(-0.00259538 -0.00035558 0)
(0.00488387 -0.0038023 0)
(-0.000644006 -0.00155617 0)
(0.00488692 0.0018765 0)
(-0.00272111 -0.00354937 0)
(0.00366633 -0.051279 0)
(-9.21044e-05 0.044973 0)
(0.00246028 0.0196273 0)
(-0.00155101 0.0106764 0)
(-0.0047435 0.011135 0)
(-0.00859148 0.00752723 0)
(-0.00906404 0.00493786 0)
(-0.00914271 0.000775169 0)
(-0.00710099 -0.000395433 0)
(-0.00754307 -0.00261075 0)
(-0.00398125 -0.00215266 0)
(-0.00607181 -0.00268553 0)
(-0.00158822 -0.00218607 0)
(-0.00530401 -0.00233182 0)
(0.000577543 -0.00253384 0)
(-0.0054361 -0.00182497 0)
(0.00297908 -0.0042792 0)
(-0.00596896 -0.00185882 0)
(0.00392919 -0.0102802 0)
(-0.00392501 -0.0206771 0)
(0.00467856 -0.0543769 0)
(-0.00423238 0.0388738 0)
(1.70272e-05 0.0225508 0)
(-0.00720017 0.0177286 0)
(-0.00705089 0.0132637 0)
(-0.0120153 0.0102665 0)
(-0.0136081 0.00421643 0)
(-0.0118102 -0.00189495 0)
(-0.00850557 -0.00250592 0)
(-0.00691324 -0.00565119 0)
(-0.00362559 -0.00507094 0)
(-0.00546387 -0.00527034 0)
(-7.64564e-05 -0.00530179 0)
(-0.00481557 -0.00404967 0)
(0.00259155 -0.00505052 0)
(-0.00497834 -0.00260805 0)
(0.00639436 -0.00509603 0)
(-0.00202367 -0.00233083 0)
(0.00625052 -0.00220613 0)
(-0.00407274 -0.00660752 0)
(0.00345046 -0.0519412 0)
(-0.000166387 0.0486013 0)
(0.000526577 0.0259857 0)
(-0.0058663 0.0174629 0)
(-0.010174 0.0173124 0)
(-0.0181092 0.0135406 0)
(-0.0185057 0.00462123 0)
(-0.0171613 -0.00419131 0)
(-0.0129108 -0.00503163 0)
(-0.0062348 -0.00728945 0)
(-0.00464306 -0.00344195 0)
(-0.00497231 -0.00500655 0)
(-0.00146765 -0.00279047 0)
(-0.00480197 -0.00368793 0)
(0.00065258 -0.0022014 0)
(-0.0065555 -0.00454736 0)
(0.00448145 -0.00678026 0)
(-0.00546698 -0.000353958 0)
(0.00426122 -0.00736287 0)
(-0.00379191 -0.0147062 0)
(0.00550279 -0.0534507 0)
(-0.00120587 0.0415703 0)
(-0.000119945 0.0279882 0)
(-0.00824887 0.0267268 0)
(-0.0160865 0.023601 0)
(-0.0177175 0.0177933 0)
(-0.0191682 0.00488026 0)
(-0.0176232 -0.00874303 0)
(-0.0143004 -0.0149159 0)
(-0.00574291 -0.0150842 0)
(-0.00355316 -0.00734656 0)
(-0.0019861 -0.00870365 0)
(0.000469961 -0.00691691 0)
(-0.00246437 -0.00645853 0)
(-0.000700267 -0.00451419 0)
(-0.00661966 -0.00638894 0)
(0.00387628 -0.0077363 0)
(-0.00830084 -0.00225159 0)
(0.00962724 -0.00599766 0)
(-0.00469269 -0.0101625 0)
(0.00413986 -0.0511246 0)
(0.00216048 0.0459472 0)
(-0.00196345 0.03228 0)
(-0.00582743 0.0293937 0)
(-0.0084713 0.026662 0)
(-0.0105759 0.0148431 0)
(-0.0132487 0.00537447 0)
(-0.0114864 -0.00983935 0)
(-0.00883713 -0.0187944 0)
(-0.00387034 -0.0172151 0)
(-0.00192014 -0.00614136 0)
(0.00167337 -0.00744741 0)
(-0.00124052 -0.00169278 0)
(-0.00107503 -0.00109055 0)
(-0.00280174 0.0012349 0)
(-0.00628815 -0.00766344 0)
(0.00116067 -0.00468991 0)
(-0.00814051 -0.00414124 0)
(0.00336519 -0.0100639 0)
(-0.00548174 -0.00536687 0)
(0.00696452 -0.0538412 0)
(9.53906e-05 0.0429765 0)
(0.00594508 0.0361028 0)
(-0.000901335 0.0353285 0)
(0.00146319 0.0283133 0)
(0.00263614 0.0235851 0)
(0.00242234 0.0104554 0)
(0.00433101 -0.0103186 0)
(0.00350852 -0.02338 0)
(0.000610493 -0.0252657 0)
(0.00603147 -0.0137397 0)
(0.0100852 -0.0098347 0)
(0.00962211 -0.00459495 0)
(0.00616431 -0.00572174 0)
(0.00807479 0.000281096 0)
(0.00685683 -0.00996688 0)
(0.00180241 -0.00898431 0)
(-0.000863463 -0.00514391 0)
(-0.0011998 -0.0117338 0)
(-0.00689948 -0.0166749 0)
(0.00449194 -0.0522862 0)
(-0.00116711 0.0414492 0)
(0.00732477 0.0343189 0)
(0.00647636 0.0340741 0)
(0.0119224 0.025864 0)
(0.0110525 0.0155862 0)
(0.0162319 0.00267755 0)
(0.0154306 -0.00989487 0)
(0.0195035 -0.0128434 0)
(0.00711943 -0.0206846 0)
(0.00369651 -0.0157621 0)
(0.00625497 -0.0123248 0)
(0.00656158 0.00238023 0)
(0.0153758 -0.000268482 0)
(0.00997468 0.000537936 0)
(0.0197916 0.00168919 0)
(0.00532733 0.00329695 0)
(-0.000694163 0.00162468 0)
(0.00289059 -0.00258424 0)
(-0.00406241 -0.00598204 0)
(0.00735527 -0.0531463 0)
(0.00548863 0.0365483 0)
(0.0117589 0.0299661 0)
(0.00939727 0.0309877 0)
(0.0202549 0.0219796 0)
(0.0241763 0.0151505 0)
(0.0267921 0.00763172 0)
(0.0295291 -0.00948133 0)
(0.0310308 -0.0192051 0)
(0.026712 -0.00540502 0)
(0.0115131 -0.00825571 0)
(0.00192094 -0.0102451 0)
(-0.00757 -0.0129927 0)
(0.00121275 -0.00985738 0)
(-0.00778813 -0.00601036 0)
(0.00319769 -0.00339608 0)
(0.00197442 0.00724007 0)
(0.00281555 -0.00341798 0)
(0.0126526 -0.0112433 0)
(-0.00573537 -0.0260219 0)
(0.00473687 -0.0527861 0)
(0.00515026 0.0253576 0)
(0.0191186 0.0298235 0)
(0.0211635 0.0280621 0)
(0.0290972 0.0139574 0)
(0.03299 0.0092483 0)
(0.0386537 0.000779061 0)
(0.0377564 -0.0114523 0)
(0.0399176 -0.0121628 0)
(0.0287928 -0.00707372 0)
(0.0406574 0.0033691 0)
(0.0336227 0.00437499 0)
(0.0354935 0.00601686 0)
(0.0166395 -0.000560123 0)
(0.0186995 0.00199043 0)
(0.00269279 -0.006979 0)
(0.005177 0.00588809 0)
(-0.00135714 -0.00438115 0)
(0.0105673 0.00548545 0)
(-0.00454414 0.00963362 0)
(0.00993314 -0.0501286 0)
(0.00644578 0.00629126 0)
(0.0199864 0.0160081 0)
(0.0223833 0.0189014 0)
(0.026907 0.00670144 0)
(0.0288931 0.00713653 0)
(0.0302865 -0.00107564 0)
(0.015954 -0.00764262 0)
(0.0113945 -0.00984938 0)
(-0.00313431 -0.00883448 0)
(0.00543493 -0.00667522 0)
(-0.00261028 -0.00380141 0)
(0.00380079 0.00237932 0)
(0.00300662 0.00344864 0)
(-0.00341654 0.00497693 0)
(0.00121235 0.00981271 0)
(-0.00279229 0.00657236 0)
(-0.00461722 -0.0123285 0)
(0.00653206 -0.00988885 0)
(-0.00723344 -0.0311647 0)
(0.00599659 -0.0539073 0)
(-0.00337281 -0.00291391 0)
(0.0132581 0.0152195 0)
(0.0224457 0.0146649 0)
(0.0184196 0.00905551 0)
(0.0261123 0.00746736 0)
(0.0274936 0.00894755 0)
(0.0260051 0.00685368 0)
(0.0254595 0.00449604 0)
(0.0209938 0.00253011 0)
(0.0190251 0.00128358 0)
(0.0141172 0.0068107 0)
(0.0161159 0.0020492 0)
(0.0127472 0.00708519 0)
(0.0184214 0.00754232 0)
(0.0110949 -0.00727494 0)
(0.0207115 0.0134954 0)
(0.0140633 -0.00767447 0)
(0.0157605 0.008456 0)
(-0.00150076 0.0168543 0)
(0.014725 -0.044494 0)
(-0.0162907 -0.00416752 0)
(-0.00730782 -0.00160948 0)
(-0.00963098 0.00998923 0)
(-0.00232272 0.00223111 0)
(-0.00747236 0.00235364 0)
(0.000159481 -0.00110282 0)
(-0.0074831 -0.00356721 0)
(-0.00160528 -0.00418167 0)
(-0.0113449 -0.00334188 0)
(-0.00537816 -0.00157043 0)
(-0.0138105 -0.000445223 0)
(-0.000142868 0.000773432 0)
(-0.0160176 -0.000320146 0)
(0.00843279 0.00646828 0)
(-0.0109765 0.00288652 0)
(2.40467e-05 0.00644603 0)
(0.00350066 -0.00642575 0)
(-0.0166907 -0.0012861 0)
(0.0185952 -0.03128 0)
(0.0127873 -0.0543227 0)
(0.00133708 0.0171485 0)
(0.0135692 0.0120683 0)
(0.0118449 0.00788102 0)
(0.0264869 0.00745714 0)
(0.0267909 0.00535023 0)
(0.0319989 0.00588759 0)
(0.033038 0.00774681 0)
(0.0368486 0.00699975 0)
(0.037647 0.00722285 0)
(0.0393506 0.00461504 0)
(0.0409727 0.00431541 0)
(0.0417051 0.00265483 0)
(0.0445362 0.00346863 0)
(0.0454446 0.000172464 0)
(0.0486874 0.00421794 0)
(0.0503092 -0.00175454 0)
(0.0532921 0.0041264 0)
(0.0513134 -6.61337e-05 0)
(0.0452274 -0.00448758 0)
(0.0242313 0.00218632 0)
)
;

boundaryField
{
    movingWall
    {
        type            fixedValue;
        value           uniform (1 0 0);
    }
    fixedWalls
    {
        type            noSlip;
    }
    frontAndBack
    {
        type            empty;
    }
}


// ************************************************************************* //
