/*--------------------------------*- C++ -*----------------------------------*\
| =========                 |                                                 |
| \\      /  F ield         | OpenFOAM: The Open Source CFD Toolbox           |
|  \\    /   O peration     | Version:  5.x                                   |
|   \\  /    A nd           | Web:      www.OpenFOAM.org                      |
|    \\/     M anipulation  |                                                 |
\*---------------------------------------------------------------------------*/
FoamFile
{
    version     2.0;
    format      ascii;
    class       volScalarField;
    location    "12.7";
    object      p;
}
// * * * * * * * * * * * * * * * * * * * * * * * * * * * * * * * * * * * * * //

dimensions      [0 2 -2 0 0 0 0];

internalField   nonuniform List<scalar> 
400
(
1.12516e-10
-0.000491418
-0.000839198
-0.00106017
-0.00115169
-0.0012076
-0.00123252
-0.00124242
-0.00124125
-0.00124186
-0.0012344
-0.00122111
-0.0012167
-0.00122095
-0.00122839
-0.00117271
-0.00103825
-0.000767366
-0.000622811
0.000311648
-0.000543501
-0.000878731
-0.00106093
-0.00118244
-0.00120325
-0.00123716
-0.00124201
-0.00125256
-0.00124615
-0.00122004
-0.00124149
-0.00119969
-0.001233
-0.00123048
-0.00125378
-0.00122974
-0.00120615
-0.00108134
-0.00106019
-0.000418714
-0.000839696
-0.00107947
-0.00115448
-0.00121144
-0.00123739
-0.00122999
-0.00124784
-0.00123721
-0.00124701
-0.00123305
-0.00124306
-0.00122638
-0.00123736
-0.00122486
-0.00124529
-0.00122382
-0.0012127
-0.00115085
-0.00109643
-0.000841124
-0.00104791
-0.00116721
-0.00122711
-0.00122208
-0.00124165
-0.00123499
-0.0012462
-0.00124116
-0.00124611
-0.00123171
-0.00123948
-0.00122021
-0.00123625
-0.00121822
-0.00124086
-0.00122775
-0.00121153
-0.00119023
-0.00124951
-0.00109268
-0.00114079
-0.00121342
-0.00122742
-0.0012289
-0.0012349
-0.00123667
-0.00124503
-0.00124237
-0.00124703
-0.00123501
-0.00124142
-0.00122367
-0.0012373
-0.00122117
-0.00123542
-0.00122415
-0.00122621
-0.00120768
-0.00119212
-0.00114371
-0.00119726
-0.00120916
-0.00123143
-0.00122892
-0.00124294
-0.00124309
-0.00125228
-0.00124896
-0.00125046
-0.00124107
-0.00123919
-0.00122696
-0.00123263
-0.00121724
-0.00122667
-0.00121131
-0.00122666
-0.00119106
-0.00122725
-0.00118719
-0.00122479
-0.00122429
-0.0012382
-0.00124172
-0.00124746
-0.00125328
-0.00125929
-0.00125836
-0.00125762
-0.00124741
-0.00124198
-0.00122975
-0.00123697
-0.00122421
-0.00123459
-0.00122527
-0.00122772
-0.00120294
-0.00121961
-0.00117726
-0.0012403
-0.00127635
-0.00125967
-0.00125996
-0.00126756
-0.00127388
-0.00128105
-0.00127784
-0.00127112
-0.00125796
-0.00124044
-0.00123064
-0.00123026
-0.00121806
-0.00122854
-0.00120512
-0.00122671
-0.00118499
-0.00119685
-0.0011783
-0.00130002
-0.00128237
-0.0012828
-0.00127976
-0.00129286
-0.00130325
-0.00130966
-0.00130644
-0.0012952
-0.00127669
-0.00124559
-0.00123614
-0.0012413
-0.00122532
-0.00123618
-0.00123369
-0.00124232
-0.00119968
-0.00124103
-0.00117846
-0.00129163
-0.00127646
-0.00128498
-0.00129141
-0.00132434
-0.00135335
-0.00136999
-0.00135438
-0.00132346
-0.00130109
-0.00124971
-0.00122553
-0.0012327
-0.00121616
-0.00123415
-0.0012142
-0.00123912
-0.00118251
-0.00118391
-0.0011864
-0.00130587
-0.00132403
-0.00131907
-0.00135469
-0.00142004
-0.00148946
-0.00151662
-0.00147128
-0.00138123
-0.00131879
-0.00126399
-0.00123299
-0.00125305
-0.00125187
-0.00126769
-0.00122927
-0.00124584
-0.0012182
-0.00123019
-0.00121402
-0.00134927
-0.00135323
-0.00135386
-0.00142092
-0.00158093
-0.00173641
-0.00180072
-0.00174232
-0.00152139
-0.00136011
-0.0012718
-0.00122192
-0.00124062
-0.00121946
-0.00128546
-0.00121618
-0.00121135
-0.00119612
-0.00119746
-0.00121551
-0.00130857
-0.00134378
-0.00137103
-0.00152681
-0.00173503
-0.00196456
-0.00206835
-0.00196055
-0.00168153
-0.00140793
-0.00130779
-0.00123888
-0.00126437
-0.00128059
-0.0013295
-0.00124157
-0.00130006
-0.0012157
-0.00128433
-0.00117731
-0.00128769
-0.0013305
-0.00139272
-0.00153014
-0.0017811
-0.00197477
-0.00208503
-0.00199274
-0.00171518
-0.00145525
-0.00130095
-0.00125637
-0.00129907
-0.00122678
-0.00126409
-0.00114731
-0.001172
-0.00110449
-0.00110188
-0.00107795
-0.00120733
-0.00126691
-0.00129686
-0.00142657
-0.00166902
-0.00180203
-0.00194763
-0.00188862
-0.00161141
-0.00146413
-0.00130478
-0.00129982
-0.00117904
-0.00129336
-0.00141947
-0.00118056
-0.00130655
-0.00115265
-0.00123308
-0.00103826
-0.00106304
-0.00114883
-0.00118965
-0.00128469
-0.00144927
-0.00158198
-0.00163433
-0.00163953
-0.00149452
-0.0013964
-0.00135888
-0.00135564
-0.00135509
-0.00147753
-0.00141412
-0.00108016
-0.000983567
-0.00095931
-0.00103277
-0.000991364
-0.000886233
-0.00100419
-0.00103101
-0.0011401
-0.00128148
-0.00141156
-0.00148517
-0.00144784
-0.00131208
-0.0012695
-0.00146494
-0.00138091
-0.00140602
-0.00131785
-0.00112407
-0.00122888
-0.00122209
-0.00109505
-0.00127719
-0.00102739
-0.000612177
-0.000811944
-0.00090399
-0.000973579
-0.00107865
-0.0011828
-0.00125784
-0.00136555
-0.00139853
-0.0014318
-0.00150305
-0.00144953
-0.00128621
-0.00109789
-0.00109879
-0.00118546
-0.00117923
-0.00101615
-0.00102859
-0.000745937
-0.000616131
-0.000760459
-0.000778142
-0.000829872
-0.000873552
-0.000915169
-0.00110642
-0.00144698
-0.00154488
-0.00151437
-0.00145313
-0.00140486
-0.00146094
-0.00111252
-0.00121174
-0.00116251
-0.00105255
-0.00132228
-0.000845919
-0.000581467
-0.000705894
-0.000726649
-0.000711528
-0.000843879
-0.000998801
-0.00114355
-0.00127766
-0.00144125
-0.00148125
-0.00138372
-0.00126712
-0.00116359
-0.00110342
-0.00107293
-0.00107785
-0.00111081
-0.0011988
-0.00100496
-0.00031691
0.000985446
)
;

boundaryField
{
    movingWall
    {
        type            zeroGradient;
    }
    fixedWalls
    {
        type            zeroGradient;
    }
    frontAndBack
    {
        type            empty;
    }
}


// ************************************************************************* //
