/*--------------------------------*- C++ -*----------------------------------*\
| =========                 |                                                 |
| \\      /  F ield         | OpenFOAM: The Open Source CFD Toolbox           |
|  \\    /   O peration     | Version:  5.x                                   |
|   \\  /    A nd           | Web:      www.OpenFOAM.org                      |
|    \\/     M anipulation  |                                                 |
\*---------------------------------------------------------------------------*/
FoamFile
{
    version     2.0;
    format      ascii;
    class       surfaceScalarField;
    location    "12.7";
    object      phi;
}
// * * * * * * * * * * * * * * * * * * * * * * * * * * * * * * * * * * * * * //

dimensions      [0 3 -1 0 0 0 0];

internalField   nonuniform List<scalar> 
760
(
-1.08553e-06
1.08553e-06
-1.76699e-06
6.81457e-07
-2.08695e-06
3.19958e-07
-2.27153e-06
1.84582e-07
-2.33218e-06
6.06484e-08
-2.39182e-06
5.9637e-08
-2.40597e-06
1.41502e-08
-2.43063e-06
2.4662e-08
-2.41187e-06
-1.87606e-08
-2.4237e-06
1.18275e-08
-2.41704e-06
-6.65417e-09
-2.41846e-06
1.41576e-09
-2.45028e-06
3.18268e-08
-2.42025e-06
-3.00368e-08
-2.39575e-06
-2.44967e-08
-2.31964e-06
-7.61056e-08
-2.223e-06
-9.66469e-08
-1.88199e-06
-3.41012e-07
-1.20204e-06
-6.79949e-07
-1.20204e-06
-5.41961e-07
1.62749e-06
-9.5311e-07
1.09261e-06
-1.03583e-06
4.02674e-07
-1.08316e-06
2.31916e-07
-1.06356e-06
4.10498e-08
-1.04207e-06
3.8149e-08
-1.02133e-06
-6.59692e-09
-9.99838e-07
3.17325e-09
-9.92492e-07
-2.61063e-08
-9.73261e-07
-7.40402e-09
-9.77648e-07
-2.26732e-09
-9.53277e-07
-2.29551e-08
-9.61509e-07
4.00588e-08
-9.83976e-07
-7.56899e-09
-1.05625e-06
4.77755e-08
-1.04892e-06
-8.34376e-08
-1.01466e-06
-1.30901e-07
-1.01208e-06
-3.43596e-07
-9.42479e-07
-7.49548e-07
-2.14452e-06
-2.91839e-07
1.91933e-06
-4.07758e-07
1.20853e-06
-3.90156e-07
3.85071e-07
-3.53081e-07
1.94841e-07
-3.21501e-07
9.47039e-09
-3.10693e-07
2.73408e-08
-2.78503e-07
-3.87871e-08
-2.83724e-07
8.39421e-09
-2.55504e-07
-5.43261e-08
-2.59056e-07
-3.85168e-09
-2.36472e-07
-2.48522e-08
-2.53944e-07
-5.48219e-09
-2.54707e-07
4.08208e-08
-2.90997e-07
2.87214e-08
-3.11622e-07
6.84008e-08
-3.0441e-07
-9.06499e-08
-2.31838e-07
-2.03473e-07
-1.11008e-07
-4.64427e-07
-2.03925e-07
-6.56631e-07
-2.34844e-06
-1.72318e-07
2.09165e-06
-1.897e-07
1.22591e-06
-1.57085e-07
3.52456e-07
-1.42618e-07
1.80375e-07
-1.71263e-07
3.81156e-08
-1.9202e-07
4.80969e-08
-2.18431e-07
-1.23756e-08
-2.34146e-07
2.41095e-08
-2.50394e-07
-3.80782e-08
-2.4868e-07
-5.56555e-09
-2.51211e-07
-2.23214e-08
-2.45708e-07
-1.09858e-08
-2.19486e-07
1.4599e-08
-1.70692e-07
-2.00726e-08
-1.34009e-07
3.17183e-08
-2.39736e-08
-2.00685e-07
-9.29733e-08
-1.34473e-07
-2.51575e-07
-3.05825e-07
-2.07478e-07
-7.00727e-07
-2.55592e-06
-4.91422e-08
2.14079e-06
-4.41402e-08
1.22091e-06
-2.37716e-08
3.32088e-07
-6.69808e-08
2.23585e-07
-1.53248e-07
1.24383e-07
-2.00075e-07
9.49236e-08
-2.34598e-07
2.21474e-08
-2.35929e-07
2.54408e-08
-2.22129e-07
-5.18784e-08
-2.09337e-07
-1.83574e-08
-1.67642e-07
-6.40162e-08
-1.30033e-07
-4.85951e-08
-7.43951e-08
-4.10391e-08
-1.21373e-08
-8.23304e-08
4.00935e-08
-2.05125e-08
8.876e-08
-2.49352e-07
8.63524e-08
-1.32066e-07
9.02661e-08
-3.09739e-07
4.46816e-08
-6.55143e-07
-2.51124e-06
-5.42605e-08
2.19505e-06
-2.50061e-08
1.19165e-06
-5.43768e-08
3.61458e-07
-1.12499e-07
2.81706e-07
-1.92768e-07
2.04652e-07
-2.35878e-07
1.38034e-07
-2.68175e-07
5.44436e-08
-2.70859e-07
2.81256e-08
-2.57376e-07
-6.53622e-08
-2.47534e-07
-2.81991e-08
-2.12463e-07
-9.90872e-08
-1.81377e-07
-7.96805e-08
-1.52184e-07
-7.02328e-08
-1.06715e-07
-1.27799e-07
-1.01661e-07
-2.55669e-08
-1.33634e-07
-2.17379e-07
-6.64922e-08
-1.99208e-07
-3.72257e-08
-3.39005e-07
-7.95671e-08
-6.12802e-07
-2.5908e-06
-4.02549e-08
2.23531e-06
-6.34358e-08
1.21483e-06
-1.31892e-07
4.29915e-07
-1.52432e-07
3.02246e-07
-2.26099e-07
2.78319e-07
-2.86586e-07
1.98521e-07
-3.12909e-07
8.07668e-08
-3.04519e-07
1.97352e-08
-2.64649e-07
-1.05232e-07
-2.51185e-07
-4.16641e-08
-1.78821e-07
-1.71451e-07
-1.35702e-07
-1.22799e-07
-6.69359e-08
-1.38999e-07
-1.06946e-08
-1.8404e-07
4.7716e-08
-8.39776e-08
1.23297e-07
-2.92959e-07
8.47125e-08
-1.60623e-07
7.4283e-08
-3.28576e-07
4.50499e-08
-5.83568e-07
-2.54575e-06
-5.40491e-08
2.28936e-06
-3.40403e-08
1.19482e-06
-8.8317e-08
4.84191e-07
-2.27937e-07
4.41866e-07
-3.21153e-07
3.71535e-07
-3.71791e-07
2.49159e-07
-4.01749e-07
1.10724e-07
-3.84463e-07
2.44955e-09
-3.32661e-07
-1.57034e-07
-3.27052e-07
-4.72732e-08
-2.47335e-07
-2.51167e-07
-2.1061e-07
-1.59524e-07
-1.75284e-07
-1.74325e-07
-1.78285e-07
-1.81039e-07
-1.00082e-07
-1.62181e-07
-8.42581e-08
-3.08783e-07
-9.81482e-08
-1.46733e-07
-3.54034e-08
-3.91321e-07
-3.42941e-08
-5.84678e-07
-2.58005e-06
1.40009e-08
2.27536e-06
-2.75405e-08
1.23636e-06
-1.73479e-07
6.3013e-07
-2.53869e-07
5.22255e-07
-3.56577e-07
4.74244e-07
-4.67197e-07
3.5978e-07
-4.66622e-07
1.10149e-07
-3.89757e-07
-7.44153e-08
-3.4325e-07
-2.03542e-07
-3.44473e-07
-4.60504e-08
-1.95568e-07
-4.00072e-07
-1.71188e-07
-1.83905e-07
-1.29018e-07
-2.16494e-07
-1.41964e-07
-1.68093e-07
-1.56799e-08
-2.88465e-07
8.85366e-08
-4.13e-07
6.10507e-08
-1.19247e-07
4.96597e-08
-3.7993e-07
-1.10712e-08
-5.23947e-07
-2.59112e-06
-1.78235e-08
2.29318e-06
6.94506e-09
1.2116e-06
-1.14705e-07
7.5178e-07
-3.49028e-07
7.56578e-07
-5.97563e-07
7.22779e-07
-7.24749e-07
4.86966e-07
-7.10201e-07
9.56015e-08
-5.53197e-07
-2.31419e-07
-4.55732e-07
-3.01007e-07
-3.59956e-07
-1.41826e-07
-2.09877e-07
-5.5015e-07
-1.9191e-07
-2.01872e-07
-1.89756e-07
-2.18649e-07
-2.39038e-07
-1.1881e-07
-2.17238e-07
-3.10265e-07
-2.46434e-07
-3.83803e-07
-1.70877e-07
-1.94805e-07
-3.14907e-08
-5.19316e-07
1.23931e-08
-5.67831e-07
-2.57873e-06
-3.21765e-08
2.32536e-06
-9.47483e-08
1.27417e-06
-2.62541e-07
9.19573e-07
-5.4669e-07
1.04073e-06
-8.26272e-07
1.00236e-06
-9.78796e-07
6.39489e-07
-1.00317e-06
1.19979e-07
-8.41201e-07
-3.93391e-07
-5.43361e-07
-5.98847e-07
-2.09227e-07
-4.7596e-07
-4.13181e-08
-7.18059e-07
-5.62325e-08
-1.86958e-07
-1.17256e-07
-1.57625e-07
-2.17972e-07
-1.80944e-08
-2.39344e-07
-2.88894e-07
-2.72526e-07
-3.50621e-07
-1.27207e-07
-3.40124e-07
-2.75122e-08
-6.1901e-07
-3.48486e-08
-5.60494e-07
-2.61358e-06
3.47409e-08
2.29062e-06
-2.91974e-08
1.33811e-06
-2.66085e-07
1.15646e-06
-5.82531e-07
1.35717e-06
-7.77542e-07
1.19737e-06
-9.07237e-07
7.69185e-07
-9.48609e-07
1.61351e-07
-8.31458e-07
-5.10542e-07
-5.10778e-07
-9.19527e-07
-1.2328e-07
-8.63459e-07
1.848e-08
-8.59819e-07
4.58027e-08
-2.1428e-07
3.44436e-08
-1.46266e-07
-2.7986e-08
4.43352e-08
-1.45994e-07
-1.70886e-07
-1.60976e-07
-3.35638e-07
-1.92988e-07
-3.08112e-07
-2.46455e-07
-5.65544e-07
2.71614e-08
-8.3411e-07
-2.58641e-06
5.80996e-08
2.23252e-06
1.7958e-08
1.37825e-06
-1.40158e-07
1.31458e-06
-2.46063e-07
1.46308e-06
-3.24611e-07
1.27592e-06
-3.23646e-07
7.68219e-07
-2.88291e-07
1.25996e-07
-1.90115e-07
-6.08719e-07
1.04772e-08
-1.12012e-06
2.11195e-07
-1.06418e-06
2.28852e-07
-8.77475e-07
3.79575e-07
-3.65003e-07
4.79158e-07
-2.45849e-07
5.12632e-07
1.08619e-08
4.72417e-07
-1.30672e-07
4.23861e-07
-2.87082e-07
2.46874e-07
-1.31125e-07
4.82145e-08
-3.66885e-07
-2.64094e-08
-7.59486e-07
-2.61282e-06
7.46395e-08
2.15788e-06
1.01528e-07
1.35136e-06
1.19525e-07
1.29658e-06
2.00485e-07
1.38212e-06
2.48981e-07
1.22742e-06
3.76383e-07
6.40818e-07
4.64597e-07
3.77812e-08
4.64568e-07
-6.08689e-07
4.74102e-07
-1.12965e-06
6.63597e-07
-1.25367e-06
4.04508e-07
-6.18386e-07
1.69886e-07
-1.30381e-07
7.60921e-08
-1.52056e-07
6.8545e-08
1.8409e-08
2.22276e-07
-2.84402e-07
1.44552e-07
-2.09358e-07
1.84199e-07
-1.70772e-07
1.73171e-07
-3.55856e-07
1.09884e-07
-6.962e-07
-2.50294e-06
1.43166e-07
2.01471e-06
2.90747e-07
1.20378e-06
3.85774e-07
1.20155e-06
6.17844e-07
1.15005e-06
8.52308e-07
9.92961e-07
1.00745e-06
4.85675e-07
9.79185e-07
6.60463e-08
1.08958e-06
-7.19079e-07
9.73259e-07
-1.01334e-06
7.82005e-07
-1.06242e-06
6.50667e-07
-4.87049e-07
4.14595e-07
1.05692e-07
2.58259e-07
4.28016e-09
-8.41683e-08
3.60836e-07
-1.20032e-07
-2.48539e-07
-1.36626e-07
-1.92764e-07
1.71069e-07
-4.78468e-07
2.16469e-07
-4.01256e-07
-5.04655e-08
-4.29265e-07
-2.5534e-06
1.99857e-07
1.81485e-06
2.86702e-07
1.11693e-06
6.39437e-07
8.48819e-07
7.65617e-07
1.02387e-06
1.08165e-06
6.76925e-07
1.23289e-06
3.34443e-07
1.35926e-06
-6.03303e-08
1.33367e-06
-6.93487e-07
1.12093e-06
-8.00592e-07
5.54668e-07
-4.96161e-07
4.72538e-07
-4.04919e-07
8.63818e-07
-2.85589e-07
1.19887e-06
-3.30768e-07
1.41975e-06
1.39951e-07
1.09133e-06
7.98828e-08
4.73718e-07
4.24849e-07
1.37631e-07
-1.42381e-07
-5.71436e-08
-2.06481e-07
7.33453e-08
-5.59754e-07
-2.48006e-06
4.27489e-07
1.38737e-06
6.47985e-07
8.96436e-07
8.15557e-07
6.81247e-07
1.05251e-06
7.86918e-07
1.20378e-06
5.25652e-07
1.38297e-06
1.55252e-07
1.61482e-06
-2.92176e-07
1.34003e-06
-4.18698e-07
6.60233e-07
-1.20799e-07
1.48836e-07
1.52368e-08
-1.97833e-07
-5.82497e-08
-2.25924e-07
-2.57498e-07
-3.59253e-07
-1.9744e-07
-1.61159e-07
-5.81432e-08
-1.687e-08
-6.4406e-08
-2.13783e-07
6.21763e-07
4.76398e-08
-4.03804e-07
-3.40395e-08
-1.24802e-07
-1.11882e-07
-4.81912e-07
-2.59194e-06
6.80474e-07
7.06892e-07
1.18432e-06
3.92589e-07
1.37649e-06
4.89075e-07
1.57678e-06
5.86634e-07
1.76242e-06
3.40014e-07
1.91073e-06
6.93372e-09
1.89047e-06
-2.71915e-07
1.77677e-06
-3.04996e-07
1.7952e-06
-1.39228e-07
1.86761e-06
-5.71781e-08
1.82761e-06
-1.82489e-08
1.59288e-06
-2.27608e-08
1.13607e-06
2.59369e-07
6.87865e-07
3.90059e-07
6.77949e-07
-5.44901e-08
6.66577e-07
6.33135e-07
5.8518e-07
-3.22407e-07
4.39848e-07
2.053e-08
2.89134e-07
-3.31197e-07
-2.30281e-06
1.0162e-07
6.05272e-07
3.5187e-07
1.42339e-07
5.57887e-07
2.83057e-07
6.83788e-07
4.60732e-07
6.73802e-07
3.50001e-07
4.27729e-07
2.53006e-07
-9.07097e-08
2.46524e-07
-5.07853e-07
1.12147e-07
-6.61613e-07
1.45323e-08
-7.02959e-07
-1.58322e-08
-6.89316e-07
-3.18921e-08
-7.14707e-07
2.63041e-09
-4.95718e-07
4.03791e-08
-2.10596e-07
1.04937e-07
-3.43883e-07
7.87965e-08
1.31143e-07
1.58109e-07
-2.03836e-07
1.25717e-08
2.84436e-08
-2.1175e-07
7.56051e-07
-1.0588e-06
-1.54676e-06
6.05272e-07
7.47611e-07
1.03067e-06
1.4914e-06
1.8414e-06
2.09441e-06
2.34093e-06
2.45308e-06
2.46761e-06
2.45178e-06
2.41989e-06
2.42252e-06
2.4629e-06
2.56783e-06
2.64663e-06
2.80474e-06
2.81731e-06
2.60556e-06
1.54676e-06
)
;

boundaryField
{
    movingWall
    {
        type            calculated;
        value           uniform 0;
    }
    fixedWalls
    {
        type            calculated;
        value           uniform 0;
    }
    frontAndBack
    {
        type            empty;
        value           nonuniform 0();
    }
}


// ************************************************************************* //
