/*--------------------------------*- C++ -*----------------------------------*\
| =========                 |                                                 |
| \\      /  F ield         | OpenFOAM: The Open Source CFD Toolbox           |
|  \\    /   O peration     | Version:  5.x                                   |
|   \\  /    A nd           | Web:      www.OpenFOAM.org                      |
|    \\/     M anipulation  |                                                 |
\*---------------------------------------------------------------------------*/
FoamFile
{
    version     2.0;
    format      ascii;
    class       volVectorField;
    location    "12.7";
    object      U;
}
// * * * * * * * * * * * * * * * * * * * * * * * * * * * * * * * * * * * * * //

dimensions      [0 1 -1 0 0 0 0];

internalField   nonuniform List<vector> 
400
(
(-0.0154164 0.00594168 0)
(-0.0317035 0.00573756 0)
(-0.0389863 0.00206271 0)
(-0.0446328 0.000100528 0)
(-0.0442439 0.000452453 0)
(-0.0485135 -2.42506e-05 0)
(-0.0461309 -0.000769988 0)
(-0.0502235 -0.000267792 0)
(-0.0463662 -0.00213244 0)
(-0.0503422 -1.18941e-05 0)
(-0.0468511 -0.00165732 0)
(-0.0494653 -4.59421e-05 0)
(-0.0471839 6.8356e-07 0)
(-0.050045 -0.000796175 0)
(-0.0487454 -0.00157661 0)
(-0.0481126 -0.00181861 0)
(-0.0462027 -0.00229029 0)
(-0.039331 -0.00492402 0)
(-0.0418008 -0.00828195 0)
(0.000150372 -0.0141016 0)
(-0.00504393 0.0333668 0)
(-0.0189243 0.0187308 0)
(-0.017863 0.00924899 0)
(-0.0244535 0.0063924 0)
(-0.017304 0.00169373 0)
(-0.0257811 0.00213283 0)
(-0.0154162 0.00127758 0)
(-0.025192 0.00111829 0)
(-0.0155605 0.00131472 0)
(-0.0228598 0.000601934 0)
(-0.0175746 0.00135113 0)
(-0.0199368 0.000137327 0)
(-0.0194833 0.00115458 0)
(-0.0179302 -0.000513926 0)
(-0.0226826 0.000430444 0)
(-0.0186888 -0.00165696 0)
(-0.0247025 -0.00237557 0)
(-0.0138441 -0.0106703 0)
(-0.0304649 -0.0222866 0)
(-0.00236343 -0.0389686 0)
(-0.0020508 0.0338029 0)
(-0.0111638 0.026248 0)
(-0.00409546 0.00773566 0)
(-0.0112809 0.00348215 0)
(-0.00310216 -0.000162539 0)
(-0.00914177 -0.000419581 0)
(-0.00384866 -0.00156617 0)
(-0.00678909 -0.000935864 0)
(-0.00506014 -0.00229998 0)
(-0.004656 -0.000984168 0)
(-0.00622759 -0.00143487 0)
(-0.00271835 -0.001253 0)
(-0.00794319 0.000401695 0)
(-0.00171056 0.000252884 0)
(-0.0105935 0.00167651 0)
(-0.00130302 -0.00133052 0)
(-0.0114809 -0.0022273 0)
(0.00271759 -0.00185909 0)
(-0.00783656 -0.0049096 0)
(0.00104226 -0.0444318 0)
(-0.00175349 0.043238 0)
(-0.00592413 0.0232912 0)
(-0.00154048 0.0071507 0)
(-0.00421719 0.00442033 0)
(-0.0018609 0.000601538 0)
(-0.00460283 0.00142685 0)
(-0.00343988 9.19828e-05 0)
(-0.0049515 0.00121083 0)
(-0.004794 0.000107457 0)
(-0.00476943 0.000870648 0)
(-0.00566123 0.000505844 0)
(-0.00384556 0.00110588 0)
(-0.00654919 0.00131827 0)
(-0.00165916 0.000979274 0)
(-0.00568283 0.00106082 0)
(0.000616863 -0.0024728 0)
(-0.00157512 -0.00561201 0)
(-0.00174854 -0.016778 0)
(-0.00953238 -0.0234283 0)
(0.00247693 -0.0506783 0)
(-0.00102724 0.0421188 0)
(-0.00130016 0.0261053 0)
(-0.000260371 0.0076825 0)
(-0.000620352 0.00290049 0)
(-0.00212457 0.00106595 0)
(-0.00383556 0.000584521 0)
(-0.00442482 -0.000541748 0)
(-0.00467154 -0.000192131 0)
(-0.00510156 -0.00164091 0)
(-0.00338984 -0.001088 0)
(-0.0054049 -0.00146342 0)
(-0.000870233 -0.00158187 0)
(-0.00472818 -0.000783263 0)
(0.00205153 -0.00186325 0)
(-0.00265316 0.000155535 0)
(0.00443443 -0.00569171 0)
(-0.0011311 -5.28978e-05 0)
(0.0047879 0.00429065 0)
(-0.00143282 -0.00255018 0)
(0.00349136 -0.048428 0)
(-0.00108125 0.0434618 0)
(-0.00106452 0.0240668 0)
(-7.11021e-05 0.00540057 0)
(-0.00189112 0.00629981 0)
(-0.00286648 0.00368754 0)
(-0.00455023 0.00314903 0)
(-0.00519936 0.00136621 0)
(-0.00522907 0.00117939 0)
(-0.00588998 -0.000396039 0)
(-0.00410658 0.000318381 0)
(-0.00608824 -0.000987223 0)
(-0.002066 -0.00040267 0)
(-0.00556171 -0.000747532 0)
(-0.000152657 -0.00125755 0)
(-0.00444134 -0.000887195 0)
(0.000708403 -0.00385443 0)
(-0.00651691 -0.00502522 0)
(0.00425889 -0.0160522 0)
(-0.00607931 -0.0249557 0)
(0.00332465 -0.0533993 0)
(-0.00173041 0.0457719 0)
(0.000112192 0.0231569 0)
(-0.00272887 0.00922587 0)
(-0.00238283 0.00475164 0)
(-0.00379921 0.00478142 0)
(-0.00532568 0.00251196 0)
(-0.00633244 0.00093698 0)
(-0.00597867 8.3791e-06 0)
(-0.00643135 -0.00216563 0)
(-0.00388742 -0.0013978 0)
(-0.00641623 -0.0031169 0)
(-0.000424175 -0.00283473 0)
(-0.00533075 -0.00222887 0)
(0.00289255 -0.00410089 0)
(-0.00341454 -0.000260151 0)
(0.00549651 -0.00535462 0)
(-0.000869725 -0.00308878 0)
(0.00459754 0.00184297 0)
(-0.00201225 0.00087606 0)
(0.00411599 -0.0485668 0)
(-0.00142335 0.0431564 0)
(-0.00104358 0.0240962 0)
(-0.000102785 0.00759516 0)
(-0.00342717 0.0074031 0)
(-0.00593045 0.00608823 0)
(-0.00682603 0.00532769 0)
(-0.00829156 0.00218327 0)
(-0.00761131 0.000750691 0)
(-0.00765834 -0.00194765 0)
(-0.00562165 -0.000207334 0)
(-0.00732527 -0.00354648 0)
(-0.00240974 -0.00195041 0)
(-0.00631367 -0.00305097 0)
(-0.000353866 -0.00295264 0)
(-0.00722132 -0.00288519 0)
(0.00361297 -0.00567126 0)
(-0.00740807 -0.00308831 0)
(0.00395646 -0.0143283 0)
(-0.00561143 -0.0232246 0)
(0.00441685 -0.0538211 0)
(0.000207436 0.0472251 0)
(0.000463442 0.0249165 0)
(-0.00167078 0.0119321 0)
(-0.0049967 0.0104147 0)
(-0.00544194 0.0090634 0)
(-0.00901845 0.00492708 0)
(-0.00988342 0.00248123 0)
(-0.0085268 -0.00063383 0)
(-0.00703254 -0.00438966 0)
(-0.00686806 -0.00174108 0)
(-0.00645953 -0.00670678 0)
(-0.00135734 -0.00468573 0)
(-0.00583551 -0.00427947 0)
(0.00102292 -0.00460715 0)
(-0.00703664 -0.00387192 0)
(0.00649367 -0.00744407 0)
(-0.00328986 -0.00310184 0)
(0.00614136 -0.00204594 0)
(-0.00458713 -0.00155833 0)
(0.00433754 -0.0489125 0)
(-0.0015287 0.0459081 0)
(0.00092695 0.0244586 0)
(-0.000699885 0.0139543 0)
(-0.00368051 0.0112353 0)
(-0.0107466 0.0106296 0)
(-0.0135506 0.0101424 0)
(-0.0158069 0.00226438 0)
(-0.0120239 -0.0020613 0)
(-0.00968294 -0.0034151 0)
(-0.00909736 -0.000201944 0)
(-0.00467868 -0.00900452 0)
(-0.00362259 -0.00231913 0)
(-0.00449962 -0.00392263 0)
(-0.00263453 -0.00166957 0)
(-0.00750358 -0.00717141 0)
(-0.000602719 -0.00827038 0)
(-0.0100247 -0.00140882 0)
(0.00387154 -0.0123479 0)
(-0.00531711 -0.0179484 0)
(0.00582982 -0.0539705 0)
(-0.00203971 0.0443004 0)
(0.000593584 0.0228195 0)
(-0.00402693 0.0153577 0)
(-0.0067268 0.0181928 0)
(-0.0157571 0.0179538 0)
(-0.0181922 0.00978592 0)
(-0.0210921 0.00184524 0)
(-0.0182625 -0.00656625 0)
(-0.0143038 -0.00810926 0)
(-0.00790095 -0.00522783 0)
(-0.000186645 -0.0134643 0)
(-0.00132552 -0.00614068 0)
(-0.00121019 -0.00534742 0)
(-0.00318476 -0.0035976 0)
(-0.00608265 -0.00578147 0)
(-0.00277893 -0.00776147 0)
(-0.00885491 -0.00682835 0)
(0.00422134 -0.00949235 0)
(-0.00550405 -0.00619497 0)
(0.00428905 -0.0502867 0)
(-0.00055013 0.0483931 0)
(0.00193341 0.0287888 0)
(-0.00290782 0.0216811 0)
(-0.00758462 0.0242089 0)
(-0.0167541 0.0210017 0)
(-0.0155806 0.014505 0)
(-0.020537 0.00237534 0)
(-0.0177043 -0.0104701 0)
(-0.0136348 -0.0167361 0)
(-0.00696453 -0.0137247 0)
(0.00179207 -0.0144707 0)
(-0.000969385 -0.000917269 0)
(0.00249435 -0.000482997 0)
(-0.000830426 0.00311853 0)
(-0.000651842 -0.00530694 0)
(-0.00441695 -0.00557752 0)
(-0.00251975 -0.00571693 0)
(-0.00488616 -0.014146 0)
(-0.00498272 -0.0147326 0)
(0.00593015 -0.0547645 0)
(-0.00074457 0.0444819 0)
(0.00285114 0.0243078 0)
(-0.00192243 0.0241224 0)
(-0.00417653 0.0279854 0)
(-0.00597806 0.0252463 0)
(-0.00797516 0.0145189 0)
(-0.00571732 0.00323489 0)
(-0.00528482 -0.0111024 0)
(-0.00150268 -0.0215394 0)
(0.00212261 -0.0214621 0)
(0.00557698 -0.0210629 0)
(0.00402996 -0.00800823 0)
(0.0103084 -0.00563905 0)
(0.00897291 -0.00177467 0)
(0.010253 -0.00221799 0)
(0.0102662 -0.0088674 0)
(0.00514586 -0.00805401 0)
(0.00590977 -0.00987474 0)
(-0.00452183 -0.0211767 0)
(0.00385269 -0.0502168 0)
(0.000107549 0.0426912 0)
(0.00268631 0.0296264 0)
(0.00172573 0.0267102 0)
(0.00325362 0.0314758 0)
(0.00392322 0.0253489 0)
(0.00614374 0.0171485 0)
(0.00790604 0.00227744 0)
(0.0111995 -0.0127689 0)
(0.0087745 -0.0234052 0)
(0.0111071 -0.0206918 0)
(0.0149203 -0.0134656 0)
(0.000900174 -0.00673104 0)
(0.00506561 -0.00509427 0)
(-0.00142704 0.00243664 0)
(0.00354174 -0.00206936 0)
(0.00652402 -0.00146121 0)
(-0.00158127 0.00392463 0)
(0.00969932 -0.00335396 0)
(-0.00329714 -0.00622458 0)
(0.00799459 -0.0517311 0)
(-0.00254013 0.0446919 0)
(0.00774218 0.0252116 0)
(0.00477018 0.0268384 0)
(0.0103115 0.0248221 0)
(0.0128021 0.0251103 0)
(0.0225906 0.00971335 0)
(0.0155658 -0.000894604 0)
(0.0245055 -0.0111017 0)
(0.0217957 -0.0201472 0)
(0.0154843 -0.0303713 0)
(0.0173522 -0.0105238 0)
(0.00690598 0.00175016 0)
(0.011342 0.000187594 0)
(-0.00208079 -0.00174931 0)
(-0.00209461 -0.0108073 0)
(-0.00139005 -0.00793086 0)
(-0.00538734 -0.0123015 0)
(0.0135718 -0.0125482 0)
(-0.00641794 -0.0246202 0)
(0.00507916 -0.0500808 0)
(0.00341816 0.0363645 0)
(0.00383299 0.0235566 0)
(0.00841895 0.0201822 0)
(0.0169308 0.0220663 0)
(0.0124585 0.0162116 0)
(0.0299863 0.0106791 0)
(0.0200913 0.00418627 0)
(0.0328152 -0.0160664 0)
(0.0228596 -0.0214921 0)
(0.021871 -0.0121092 0)
(0.000576041 -0.0090008 0)
(0.017674 0.00208728 0)
(0.0180727 -0.000226928 0)
(0.0271548 0.0143941 0)
(0.0295595 0.000331093 0)
(0.0174181 0.00144089 0)
(0.000207176 -0.00373871 0)
(0.00562519 -0.00137366 0)
(-0.00839423 0.0100219 0)
(0.0118113 -0.0497815 0)
(0.00113296 0.0371852 0)
(0.0145657 0.0219214 0)
(0.0129337 0.0150801 0)
(0.0186854 0.0184253 0)
(0.0224494 0.00983943 0)
(0.0246832 0.00185122 0)
(0.0297495 -0.00716414 0)
(0.036335 -0.0104961 0)
(0.0192733 -0.00818753 0)
(0.00823406 -0.00585334 0)
(-0.00347562 -0.00830344 0)
(-0.00315237 -0.0128428 0)
(-0.00688417 -0.0128447 0)
(-0.00775267 -0.00787363 0)
(0.00243145 0.00381723 0)
(-0.0034781 0.0135613 0)
(-0.00508872 -0.00351632 0)
(0.00763375 -0.00838767 0)
(-0.00971349 -0.0356395 0)
(0.00647447 -0.0538827 0)
(0.0027681 0.0213867 0)
(0.022337 0.0155771 0)
(0.0266719 0.011365 0)
(0.0296732 0.0140254 0)
(0.0320603 0.011797 0)
(0.0382146 0.00463909 0)
(0.0388731 -0.00352667 0)
(0.0354463 -0.00641654 0)
(0.0370335 0.00264085 0)
(0.0338471 0.00615684 0)
(0.0389425 0.00609637 0)
(0.0357692 0.00212245 0)
(0.0283488 0.00631552 0)
(0.0189252 0.00609278 0)
(0.00762523 -0.00677013 0)
(0.0180163 0.0129845 0)
(0.00765498 -0.0113916 0)
(0.0177335 0.0046145 0)
(-0.0021654 0.0186799 0)
(0.0155511 -0.0451042 0)
(-0.00531499 0.00523041 0)
(0.00868491 -0.000900487 0)
(0.00644434 0.00892372 0)
(0.0151833 0.0107326 0)
(0.0125148 0.00330461 0)
(0.0157513 -0.00409439 0)
(0.000701298 -0.00638597 0)
(-0.00519127 -0.00699923 0)
(-0.0139559 -0.00901543 0)
(-0.0121793 -0.0087147 0)
(-0.0161215 -0.00695005 0)
(-0.0102725 -0.00323076 0)
(-0.0209989 0.00197348 0)
(0.00406022 0.00801051 0)
(-0.0140519 0.00394036 0)
(0.00102161 0.0123392 0)
(0.0052951 4.21847e-05 0)
(-0.0155968 -0.0044475 0)
(0.0174677 -0.0335671 0)
(0.0136456 -0.0553223 0)
(0.00464664 0.017619 0)
(0.0190791 0.00690461 0)
(0.0124944 0.00278157 0)
(0.0269637 0.00638525 0)
(0.0332977 0.00890117 0)
(0.0396576 0.0122984 0)
(0.043246 0.0147325 0)
(0.0483727 0.0119263 0)
(0.0513196 0.00986582 0)
(0.0490939 0.00841446 0)
(0.0487651 0.00611113 0)
(0.0477078 0.00355482 0)
(0.0492905 0.000492898 0)
(0.0505083 -0.00337594 0)
(0.0516454 -1.98885e-05 0)
(0.0536463 -0.00555757 0)
(0.054212 0.000146232 0)
(0.0555146 -0.00203585 0)
(0.0459168 -0.00450472 0)
(0.0236213 0.00300454 0)
)
;

boundaryField
{
    movingWall
    {
        type            fixedValue;
        value           uniform (1 0 0);
    }
    fixedWalls
    {
        type            noSlip;
    }
    frontAndBack
    {
        type            empty;
    }
}


// ************************************************************************* //
