/*--------------------------------*- C++ -*----------------------------------*\
| =========                 |                                                 |
| \\      /  F ield         | OpenFOAM: The Open Source CFD Toolbox           |
|  \\    /   O peration     | Version:  5.x                                   |
|   \\  /    A nd           | Web:      www.OpenFOAM.org                      |
|    \\/     M anipulation  |                                                 |
\*---------------------------------------------------------------------------*/
FoamFile
{
    version     2.0;
    format      ascii;
    class       volVectorField;
    location    "0.5";
    object      U;
}
// * * * * * * * * * * * * * * * * * * * * * * * * * * * * * * * * * * * * * //

dimensions      [0 1 -1 0 0 0 0];

internalField   nonuniform List<vector> 
400
(
(-2.03829e-05 2.03193e-05 0)
(-6.08075e-05 1.9959e-05 0)
(-9.98523e-05 1.89376e-05 0)
(-0.00013636 1.74467e-05 0)
(-0.000169448 1.55339e-05 0)
(-0.000198327 1.32557e-05 0)
(-0.000222327 1.06738e-05 0)
(-0.000240904 7.85204e-06 0)
(-0.000253645 4.85479e-06 0)
(-0.000260263 1.74591e-06 0)
(-0.000260599 -1.41089e-06 0)
(-0.000254621 -4.55105e-06 0)
(-0.000242429 -7.60832e-06 0)
(-0.000224255 -1.05138e-05 0)
(-0.000200474 -1.31958e-05 0)
(-0.000171606 -1.55814e-05 0)
(-0.000138315 -1.75982e-05 0)
(-0.000101409 -1.91792e-05 0)
(-6.18078e-05 -2.02667e-05 0)
(-2.07272e-05 -2.06601e-05 0)
(-2.10585e-05 6.16576e-05 0)
(-6.28177e-05 6.05587e-05 0)
(-0.000103138 5.74512e-05 0)
(-0.000140819 5.29176e-05 0)
(-0.000174949 4.71056e-05 0)
(-0.000204719 4.01887e-05 0)
(-0.000229446 3.23556e-05 0)
(-0.00024858 2.38007e-05 0)
(-0.000261705 1.47181e-05 0)
(-0.000268532 5.2999e-06 0)
(-0.000268899 -4.26307e-06 0)
(-0.000262774 -1.37778e-05 0)
(-0.000250251 -2.30456e-05 0)
(-0.000231562 -3.18593e-05 0)
(-0.000207078 -4.00022e-05 0)
(-0.000177322 -4.72517e-05 0)
(-0.000142971 -5.33868e-05 0)
(-0.000104854 -5.82005e-05 0)
(-6.39214e-05 -6.15141e-05 0)
(-2.14385e-05 -6.27161e-05 0)
(-2.21166e-05 0.000104735 0)
(-6.59636e-05 0.000102851 0)
(-0.000108269 9.7543e-05 0)
(-0.000147764 8.98096e-05 0)
(-0.000183491 7.99103e-05 0)
(-0.000214613 6.81482e-05 0)
(-0.000240435 5.48487e-05 0)
(-0.000260404 4.03428e-05 0)
(-0.000274105 2.49575e-05 0)
(-0.000281252 9.01251e-06 0)
(-0.000281685 -7.17647e-06 0)
(-0.000275364 -2.3291e-05 0)
(-0.000262375 -3.90023e-05 0)
(-0.000242935 -5.39644e-05 0)
(-0.000217406 -6.78119e-05 0)
(-0.000186307 -8.01642e-05 0)
(-0.000150325 -9.0639e-05 0)
(-0.000110315 -9.88731e-05 0)
(-6.72813e-05 -0.00010455 0)
(-2.25707e-05 -0.000106619 0)
(-2.37514e-05 0.000150479 0)
(-7.08208e-05 0.000147732 0)
(-0.000116183 0.000140039 0)
(-0.000158455 0.000128852 0)
(-0.000196614 0.000114568 0)
(-0.000229785 9.7639e-05 0)
(-0.000257256 7.85449e-05 0)
(-0.000278477 5.77629e-05 0)
(-0.000293041 3.57558e-05 0)
(-0.000300671 1.29685e-05 0)
(-0.000301208 -1.01648e-05 0)
(-0.000294605 -3.32078e-05 0)
(-0.000280929 -5.57076e-05 0)
(-0.000260375 -7.71817e-05 0)
(-0.000233281 -9.71108e-05 0)
(-0.000200152 -0.000114944 0)
(-0.000161683 -0.000130115 0)
(-0.000118769 -0.000142078 0)
(-7.24906e-05 -0.000150346 0)
(-2.43275e-05 -0.000153382 0)
(-2.60245e-05 0.000200111 0)
(-7.75671e-05 0.00019638 0)
(-0.000127152 0.000186014 0)
(-0.000173235 0.000170987 0)
(-0.000214704 0.00015187 0)
(-0.000250636 0.0001293 0)
(-0.000280311 0.000103935 0)
(-0.000303193 7.64141e-05 0)
(-0.000318899 4.73382e-05 0)
(-0.000327173 1.72717e-05 0)
(-0.000327861 -1.3245e-05 0)
(-0.000320907 -4.36722e-05 0)
(-0.000306349 -7.34454e-05 0)
(-0.000284338 -0.000101951 0)
(-0.000255168 -0.000128511 0)
(-0.000219312 -0.000152386 0)
(-0.000177459 -0.000172793 0)
(-0.00013055 -0.000188958 0)
(-7.9768e-05 -0.000200173 0)
(-2.6785e-05 -0.000204335 0)
(-2.90274e-05 0.000254989 0)
(-8.64656e-05 0.000250087 0)
(-0.000141578 0.000236629 0)
(-0.000192599 0.000217208 0)
(-0.000238302 0.000192628 0)
(-0.000277719 0.000163765 0)
(-0.000310142 0.000131493 0)
(-0.000335074 9.66297e-05 0)
(-0.000352183 5.99176e-05 0)
(-0.000361254 2.20272e-05 0)
(-0.000362152 -1.64172e-05 0)
(-0.000354805 -5.47979e-05 0)
(-0.000339208 -9.24614e-05 0)
(-0.000315441 -0.000128677 0)
(-0.000283716 -0.000162607 0)
(-0.000244434 -0.000193298 0)
(-0.000198255 -0.000219708 0)
(-0.000146154 -0.00024076 0)
(-8.94424e-05 -0.000255449 0)
(-3.00585e-05 -0.00026098 0)
(-3.28946e-05 0.000316689 0)
(-9.78985e-05 0.000310338 0)
(-0.000160034 0.000293183 0)
(-0.000217237 0.000268585 0)
(-0.000268147 0.000237677 0)
(-0.000311771 0.000201655 0)
(-0.000347446 0.000161659 0)
(-0.000374768 0.00011871 0)
(-0.000393502 7.36856e-05 0)
(-0.000403508 2.73399e-05 0)
(-0.000404687 -1.96562e-05 0)
(-0.000396951 -6.66512e-05 0)
(-0.000380228 -0.000112942 0)
(-0.000354483 -0.000157709 0)
(-0.00031979 -0.000199959 0)
(-0.000276413 -0.000238504 0)
(-0.000224921 -0.000271973 0)
(-0.000166298 -0.000298893 0)
(-0.000101998 -0.000317824 0)
(-3.43193e-05 -0.000325096 0)
(-3.78239e-05 0.000387109 0)
(-0.000112421 0.000378879 0)
(-0.000183335 0.00035715 0)
(-0.000248104 0.000326273 0)
(-0.000305231 0.000287863 0)
(-0.000353738 0.000243549 0)
(-0.000393088 0.000194808 0)
(-0.000423048 0.000142888 0)
(-0.000443553 8.87902e-05 0)
(-0.000454596 3.33081e-05 0)
(-0.000456143 -2.2901e-05 0)
(-0.000448091 -7.9223e-05 0)
(-0.000430266 -0.000134971 0)
(-0.000402458 -0.000189288 0)
(-0.000364512 -0.00024105 0)
(-0.000316449 -0.000288809 0)
(-0.000258644 -0.00033079 0)
(-0.000192014 -0.000364972 0)
(-0.000118149 -0.000389282 0)
(-3.9825e-05 -0.000398877 0)
(-4.41133e-05 0.000468617 0)
(-0.000130851 0.000457832 0)
(-0.000212646 0.000430231 0)
(-0.000286523 0.000391508 0)
(-0.000350871 0.000343996 0)
(-0.000404826 0.000289919 0)
(-0.000448108 0.000231181 0)
(-0.000480787 0.000169277 0)
(-0.000503082 0.000105299 0)
(-0.000515199 4.00108e-05 0)
(-0.000517218 -2.60402e-05 0)
(-0.000509022 -9.23862e-05 0)
(-0.000490293 -0.000158464 0)
(-0.000460562 -0.000223469 0)
(-0.000419311 -0.000286199 0)
(-0.000366153 -0.000344942 0)
(-0.000301084 -0.000397424 0)
(-0.000224802 -0.000440876 0)
(-0.000138973 -0.000472274 0)
(-4.69729e-05 -0.000485134 0)
(-5.22287e-05 0.000564298 0)
(-0.000154431 0.000549836 0)
(-0.000249664 0.000514405 0)
(-0.000334339 0.000465581 0)
(-0.000406821 0.000406771 0)
(-0.000466554 0.000341026 0)
(-0.00051373 0.00027078 0)
(-0.000548929 0.00019778 0)
(-0.000572819 0.000123143 0)
(-0.000585936 4.7485e-05 0)
(-0.00058854 -2.88961e-05 0)
(-0.000580515 -0.000105837 0)
(-0.000561348 -0.000183068 0)
(-0.000530193 -0.000259986 0)
(-0.000485985 -0.00033542 0)
(-0.000427675 -0.000407428 0)
(-0.000354579 -0.000473147 0)
(-0.000266878 -0.000528795 0)
(-0.00016614 -0.000569908 0)
(-5.64034e-05 -0.000587642 0)
(-6.29359e-05 0.000678359 0)
(-0.000185109 0.000658259 0)
(-0.000296906 0.000611977 0)
(-0.000394157 0.000549749 0)
(-0.000475426 0.000476616 0)
(-0.000540818 0.000396747 0)
(-0.000591355 0.000313205 0)
(-0.000628425 0.00022796 0)
(-0.000653378 0.000142026 0)
(-0.000667238 5.5691e-05 0)
(-0.00067054 -3.12115e-05 0)
(-0.000663193 -0.000119033 0)
(-0.000644442 -0.000208032 0)
(-0.000612915 -0.000298056 0)
(-0.000566754 -0.000388186 0)
(-0.000503881 -0.00047636 0)
(-0.000422452 -0.000559082 0)
(-0.000321582 -0.000631246 0)
(-0.000202341 -0.000686208 0)
(-6.9208e-05 -0.00071173 0)
(-7.7572e-05 0.000816836 0)
(-0.000226061 0.000787462 0)
(-0.000358178 0.000725575 0)
(-0.000469699 0.000645049 0)
(-0.000559824 0.000553411 0)
(-0.000629965 0.000456274 0)
(-0.000682519 0.00035742 0)
(-0.00072011 0.000258892 0)
(-0.000745089 0.000161346 0)
(-0.000759174 6.44716e-05 0)
(-0.000763265 -3.26343e-05 0)
(-0.000757337 -0.000131121 0)
(-0.000740372 -0.000232078 0)
(-0.000710347 -0.000336149 0)
(-0.00066429 -0.000443058 0)
(-0.000598571 -0.000550987 0)
(-0.000509465 -0.00065587 0)
(-0.000394031 -0.000750995 0)
(-0.000252098 -0.000826415 0)
(-8.73739e-05 -0.000865355 0)
(-9.86223e-05 0.000989004 0)
(-0.000282686 0.000943113 0)
(-0.000439319 0.000858057 0)
(-0.000566322 0.000751906 0)
(-0.000664203 0.000635989 0)
(-0.000736811 0.000517739 0)
(-0.000788739 0.000401502 0)
(-0.0008245 0.000288982 0)
(-0.000847799 0.000180071 0)
(-0.000861219 7.34983e-05 0)
(-0.000866134 -3.27063e-05 0)
(-0.000862638 -0.000140836 0)
(-0.000849471 -0.000253193 0)
(-0.000823895 -0.000371678 0)
(-0.000781592 -0.000497237 0)
(-0.000716693 -0.000629 0)
(-0.000622461 -0.000762979 0)
(-0.000492166 -0.000890723 0)
(-0.000323353 -0.000997245 0)
(-0.000114773 -0.00106114 0)
(-0.000131094 0.00120864 0)
(-0.000364661 0.00113222 0)
(-0.000549376 0.00101206 0)
(-0.000691771 0.000869272 0)
(-0.000793994 0.000721424 0)
(-0.000864456 0.00057769 0)
(-0.000911278 0.000442227 0)
(-0.000941542 0.000315675 0)
(-0.000960574 0.000196565 0)
(-0.000971952 8.21862e-05 0)
(-0.0009776 -3.08791e-05 0)
(-0.000977824 -0.000146429 0)
(-0.000971215 -0.000268403 0)
(-0.000954392 -0.000400549 0)
(-0.000921611 -0.000545875 0)
(-0.000864313 -0.000705596 0)
(-0.000771186 -0.000877259 0)
(-0.00062836 -0.00105206 0)
(-0.00043065 -0.00120674 0)
(-0.000159417 -0.00132022 0)
(-0.000184272 0.00150971 0)
(-0.000488653 0.00136425 0)
(-0.000702231 0.00118911 0)
(-0.000856973 0.000993187 0)
(-0.000955793 0.000803959 0)
(-0.00101601 0.000630218 0)
(-0.00105076 0.000474508 0)
(-0.00107016 0.00033516 0)
(-0.00108129 0.000208427 0)
(-0.00108866 8.95938e-05 0)
(-0.00109475 -2.65735e-05 0)
(-0.00110016 -0.000145673 0)
(-0.00110359 -0.000273654 0)
(-0.00110137 -0.000416732 0)
(-0.00108664 -0.000581099 0)
(-0.00104807 -0.000771911 0)
(-0.000968901 -0.000990799 0)
(-0.000821783 -0.00123277 0)
(-0.00060152 -0.0014624 0)
(-0.000238566 -0.00168249 0)
(-0.000288011 0.00185907 0)
(-0.00069733 0.0016366 0)
(-0.000920258 0.00138401 0)
(-0.00107697 0.00111411 0)
(-0.00115698 0.000872992 0)
(-0.00119391 0.000665844 0)
(-0.00120634 0.000490926 0)
(-0.00120763 0.000342212 0)
(-0.00120614 0.000212505 0)
(-0.00120695 9.441e-05 0)
(-0.00121287 -1.92895e-05 0)
(-0.00122491 -0.000136059 0)
(-0.00124228 -0.000263881 0)
(-0.00126184 -0.000411951 0)
(-0.00127679 -0.000590881 0)
(-0.00127401 -0.000812287 0)
(-0.00123196 -0.00108649 0)
(-0.00110035 -0.00142206 0)
(-0.000892282 -0.00175936 0)
(-0.000393486 -0.00219597 0)
(-0.000418285 0.00272887 0)
(-0.000980866 0.00199882 0)
(-0.00122447 0.00160668 0)
(-0.00136825 0.00121727 0)
(-0.00140408 0.000910908 0)
(-0.00139809 0.000669931 0)
(-0.00137439 0.000481077 0)
(-0.00134858 0.000330186 0)
(-0.00132909 0.000204892 0)
(-0.00132046 9.47503e-05 0)
(-0.00132522 -9.37053e-06 0)
(-0.00134476 -0.000115509 0)
(-0.00137949 -0.000234095 0)
(-0.00142837 -0.000376914 0)
(-0.00148698 -0.000560082 0)
(-0.00154366 -0.000806762 0)
(-0.00157826 -0.00114691 0)
(-0.00149571 -0.00163305 0)
(-0.00138535 -0.00215336 0)
(-0.000696553 -0.00315617 0)
(-0.000970872 0.00280889 0)
(-0.00183251 0.00227981 0)
(-0.00169131 0.00173213 0)
(-0.00177135 0.00125189 0)
(-0.00170383 0.000889881 0)
(-0.00162369 0.000627091 0)
(-0.00154611 0.000436883 0)
(-0.00148382 0.000295051 0)
(-0.00144154 0.000183975 0)
(-0.00142113 9.0829e-05 0)
(-0.00142297 5.54112e-06 0)
(-0.00144939 -8.11394e-05 0)
(-0.00150333 -0.000178356 0)
(-0.00158732 -0.000298514 0)
(-0.00170589 -0.000458955 0)
(-0.00185975 -0.000686961 0)
(-0.00205534 -0.00101271 0)
(-0.00210612 -0.00156852 0)
(-0.00239222 -0.00204355 0)
(-0.001341 -0.00395278 0)
(-0.00247723 0.0067288 0)
(-0.00274309 0.00240636 0)
(-0.00256665 0.00185058 0)
(-0.0023741 0.00113475 0)
(-0.00210166 0.00072343 0)
(-0.00187626 0.000481238 0)
(-0.0017026 0.000323354 0)
(-0.00157845 0.000214347 0)
(-0.00149642 0.000134184 0)
(-0.00145095 7.01866e-05 0)
(-0.00143927 1.35577e-05 0)
(-0.00146064 -4.39692e-05 0)
(-0.00151659 -0.000109694 0)
(-0.00161155 -0.000197537 0)
(-0.00175039 -0.000331583 0)
(-0.00192022 -0.000571997 0)
(-0.00218466 -0.000983779 0)
(-0.00202224 -0.00194698 0)
(-0.00281214 -0.00313311 0)
(-0.000746913 -0.00838026 0)
(0.0082391 0.00631676 0)
(0.00713246 0.00206584 0)
(0.0108033 0.00125079 0)
(0.0116429 0.000699391 0)
(0.0123275 0.000390848 0)
(0.0128008 0.00023634 0)
(0.0131018 0.000150312 0)
(0.0132996 9.76252e-05 0)
(0.0134283 6.25808e-05 0)
(0.0135054 3.69684e-05 0)
(0.01354 1.60412e-05 0)
(0.0135355 -3.2661e-06 0)
(0.0134889 -2.4378e-05 0)
(0.0133912 -5.32017e-05 0)
(0.0131981 -9.91689e-05 0)
(0.0129498 -0.00020495 0)
(0.0121101 -0.000371153 0)
(0.0122022 -0.000985947 0)
(0.00742277 -0.00148414 0)
(0.00948909 -0.00566732 0)
)
;

boundaryField
{
    movingWall
    {
        type            fixedValue;
        value           uniform (1 0 0);
    }
    fixedWalls
    {
        type            noSlip;
    }
    frontAndBack
    {
        type            empty;
    }
}


// ************************************************************************* //
