/*--------------------------------*- C++ -*----------------------------------*\
| =========                 |                                                 |
| \\      /  F ield         | OpenFOAM: The Open Source CFD Toolbox           |
|  \\    /   O peration     | Version:  5.x                                   |
|   \\  /    A nd           | Web:      www.OpenFOAM.org                      |
|    \\/     M anipulation  |                                                 |
\*---------------------------------------------------------------------------*/
FoamFile
{
    version     2.0;
    format      ascii;
    class       volVectorField;
    location    "12.2";
    object      U;
}
// * * * * * * * * * * * * * * * * * * * * * * * * * * * * * * * * * * * * * //

dimensions      [0 1 -1 0 0 0 0];

internalField   nonuniform List<vector> 
400
(
(-0.00941595 0.00749912 0)
(-0.033459 0.00558723 0)
(-0.0376725 0.00157169 0)
(-0.0453044 0.00157395 0)
(-0.0444052 -0.00165193 0)
(-0.048113 0.000427063 0)
(-0.045996 -0.00254127 0)
(-0.0481868 0.000371705 0)
(-0.0464526 -0.000730113 0)
(-0.049455 -0.000315616 0)
(-0.0476073 -0.000688321 0)
(-0.0491207 -0.000462327 0)
(-0.0494149 -0.00120547 0)
(-0.0475005 -0.00162772 0)
(-0.0493384 -0.000379582 0)
(-0.0477242 -0.000672537 0)
(-0.0477072 -0.00121323 0)
(-0.0407925 -0.0061366 0)
(-0.0417047 -0.00972017 0)
(-0.00032639 -0.0140543 0)
(-0.00627948 0.0284209 0)
(-0.0203017 0.0229963 0)
(-0.0165217 0.00858662 0)
(-0.0250167 0.00637413 0)
(-0.0165969 0.00253154 0)
(-0.0257752 0.00180066 0)
(-0.0170833 0.00117514 0)
(-0.0240679 0.00102385 0)
(-0.0183763 0.00128628 0)
(-0.0205576 0.00105468 0)
(-0.0193435 0.00153254 0)
(-0.0182143 0.000866246 0)
(-0.0199361 0.00116668 0)
(-0.0168825 -0.000865494 0)
(-0.0226857 0.000555211 0)
(-0.0182567 -0.00132893 0)
(-0.0254341 -0.00172432 0)
(-0.0142379 -0.0108366 0)
(-0.0308916 -0.0221571 0)
(-0.00291888 -0.0393989 0)
(-0.00793524 0.0369709 0)
(-0.0103687 0.0235196 0)
(-0.00501471 0.00755435 0)
(-0.0102699 0.003825 0)
(-0.00424181 -0.000603319 0)
(-0.00837229 -0.000182846 0)
(-0.00491551 -0.00197292 0)
(-0.00646883 -0.000954711 0)
(-0.00570228 -0.00180996 0)
(-0.00434037 -0.00168226 0)
(-0.00627038 -0.00105488 0)
(-0.00216382 -0.00191611 0)
(-0.00746058 -0.000471488 0)
(-0.00103884 -0.000580241 0)
(-0.0102577 0.00212732 0)
(-0.000850852 0.000333943 0)
(-0.0117728 -0.000545287 0)
(0.00327207 -0.00247478 0)
(-0.00870019 -0.00628162 0)
(0.00185986 -0.045427 0)
(-0.00189615 0.0435298 0)
(-0.00334797 0.0228291 0)
(-0.00255623 0.00726481 0)
(-0.00309212 0.00432519 0)
(-0.00205528 0.00117365 0)
(-0.00433967 0.00133469 0)
(-0.00348045 1.40986e-05 0)
(-0.00472957 0.000930845 0)
(-0.00469958 0.000177768 0)
(-0.00432291 0.000665348 0)
(-0.00548 0.000522656 0)
(-0.00337545 0.00104327 0)
(-0.00637666 0.00124555 0)
(-0.00221277 0.000963676 0)
(-0.00618306 0.00167654 0)
(2.44352e-06 -0.00127229 0)
(-0.00207158 -0.00488666 0)
(-0.0010682 -0.0166803 0)
(-0.0101483 -0.023441 0)
(0.0024584 -0.0511731 0)
(-0.00256122 0.0405269 0)
(-0.00132719 0.0255755 0)
(-0.000162964 0.00736551 0)
(-0.000889421 0.00320013 0)
(-0.0022307 0.00150754 0)
(-0.00396551 0.000668581 0)
(-0.00451952 -0.000703484 0)
(-0.00469532 -0.000491191 0)
(-0.00509603 -0.00163516 0)
(-0.00317171 -0.00155253 0)
(-0.00523017 -0.00141847 0)
(-0.000763924 -0.00187063 0)
(-0.00450255 -0.000764892 0)
(0.00195113 -0.00198161 0)
(-0.00256603 0.000475108 0)
(0.00467309 -0.00442144 0)
(-0.000152722 0.00030024 0)
(0.00462077 0.00419587 0)
(-0.00147886 -0.00364183 0)
(0.00326023 -0.0499603 0)
(-0.000549201 0.0488791 0)
(-0.00111239 0.0215916 0)
(-0.00146599 0.00540327 0)
(-0.00263105 0.00601095 0)
(-0.00334826 0.00390317 0)
(-0.00462855 0.00304358 0)
(-0.00537531 0.00112581 0)
(-0.00500744 0.000878143 0)
(-0.00581333 -0.000532233 0)
(-0.00363815 -0.0001321 0)
(-0.00573222 -0.000769185 0)
(-0.00194285 -0.000561227 0)
(-0.00526131 -0.000555322 0)
(-0.000366734 -0.0011073 0)
(-0.00440163 -0.000589876 0)
(0.000903806 -0.00340318 0)
(-0.00604709 -0.00386336 0)
(0.00403086 -0.0147868 0)
(-0.00608946 -0.0247829 0)
(0.00371943 -0.0540746 0)
(-0.00140575 0.0412765 0)
(8.46619e-05 0.0237629 0)
(-0.00183215 0.00978005 0)
(-0.00248442 0.00453644 0)
(-0.00434999 0.00468377 0)
(-0.00561984 0.0024498 0)
(-0.00656612 0.000380758 0)
(-0.00590728 -0.000503744 0)
(-0.00639955 -0.00252271 0)
(-0.00333852 -0.00207264 0)
(-0.005874 -0.00281945 0)
(-0.000265893 -0.00309745 0)
(-0.00487174 -0.00193141 0)
(0.00288014 -0.0039775 0)
(-0.00289223 -0.000308677 0)
(0.00517325 -0.00453576 0)
(-0.000498981 -0.00244559 0)
(0.00494379 0.0020619 0)
(-0.00205701 -0.00132694 0)
(0.00357225 -0.0496829 0)
(-0.000633121 0.0481457 0)
(0.00122447 0.0243887 0)
(0.00136035 0.0081615 0)
(-0.00347045 0.00882874 0)
(-0.00654357 0.00648518 0)
(-0.00750965 0.00501325 0)
(-0.00857502 0.0015878 0)
(-0.00737797 0.000272405 0)
(-0.00758251 -0.0025652 0)
(-0.00446054 -0.00123081 0)
(-0.0066647 -0.00274621 0)
(-0.00204148 -0.00203239 0)
(-0.00584256 -0.0026693 0)
(0.000212639 -0.0028017 0)
(-0.00627855 -0.00231872 0)
(0.00325531 -0.00511235 0)
(-0.00654559 -0.00259664 0)
(0.00403402 -0.0122862 0)
(-0.00420739 -0.021964 0)
(0.00444618 -0.0550438 0)
(-0.00184105 0.044354 0)
(0.00291242 0.022007 0)
(-0.00309474 0.0150283 0)
(-0.0049646 0.011759 0)
(-0.00839301 0.00985 0)
(-0.0107965 0.00510002 0)
(-0.0108662 0.000513026 0)
(-0.00882749 -0.00118417 0)
(-0.00657288 -0.00560784 0)
(-0.0047565 -0.00343474 0)
(-0.00609988 -0.00527748 0)
(-0.000816344 -0.00490949 0)
(-0.00552569 -0.00415538 0)
(0.00196342 -0.0048486 0)
(-0.00616309 -0.00308146 0)
(0.00680032 -0.00631846 0)
(-0.00221308 -0.00300638 0)
(0.00639292 -0.00232105 0)
(-0.00414605 -0.00389941 0)
(0.00393813 -0.0492042 0)
(-0.00125649 0.043642 0)
(0.00029646 0.0229449 0)
(-0.00301612 0.0148242 0)
(-0.00498097 0.014826 0)
(-0.0155171 0.0115725 0)
(-0.0163276 0.00760218 0)
(-0.0174388 0.000217684 0)
(-0.0124547 -0.0039788 0)
(-0.00693909 -0.00677438 0)
(-0.00684884 -0.00125485 0)
(-0.00522675 -0.00585058 0)
(-0.00269123 -0.00257163 0)
(-0.00494234 -0.00407238 0)
(-0.00098264 -0.00218816 0)
(-0.00756133 -0.00604089 0)
(0.00284397 -0.00833445 0)
(-0.0076544 -0.000710309 0)
(0.00447225 -0.00955099 0)
(-0.00466179 -0.0162217 0)
(0.00560635 -0.0538208 0)
(-0.000167113 0.0458661 0)
(0.00262026 0.0264344 0)
(-0.00603815 0.0204882 0)
(-0.0102214 0.0225571 0)
(-0.0181324 0.0205306 0)
(-0.0191542 0.00793479 0)
(-0.0201895 -0.00283309 0)
(-0.0161494 -0.0125706 0)
(-0.0102766 -0.0125914 0)
(-0.00639654 -0.00516272 0)
(-0.0014411 -0.0102072 0)
(-0.000994837 -0.00650896 0)
(-0.0026038 -0.00616754 0)
(-0.00235578 -0.00361289 0)
(-0.00695685 -0.00680114 0)
(0.00109832 -0.00834059 0)
(-0.00960261 -0.00440995 0)
(0.00828542 -0.00787141 0)
(-0.00518701 -0.00766061 0)
(0.00464014 -0.0504184 0)
(-0.0039508 0.0432298 0)
(0.000519109 0.027352 0)
(-0.00544564 0.0263825 0)
(-0.010232 0.0269115 0)
(-0.0141358 0.0189222 0)
(-0.0158424 0.00951348 0)
(-0.0165106 -0.00353351 0)
(-0.0143455 -0.0157489 0)
(-0.0119016 -0.0180899 0)
(-0.00575314 -0.00908512 0)
(0.00258502 -0.00949648 0)
(-0.00125589 -0.000764316 0)
(0.000749119 -0.000998433 0)
(-0.00248892 0.00179834 0)
(-0.00361381 -0.00795285 0)
(-0.00304549 -0.00554049 0)
(-0.00578856 -0.00547833 0)
(-0.00194227 -0.0122684 0)
(-0.00620549 -0.00888936 0)
(0.00657534 -0.0535751 0)
(-0.000484894 0.0454327 0)
(0.000722554 0.0278125 0)
(-0.00363371 0.0282434 0)
(-0.00446887 0.0295968 0)
(-0.00164515 0.0241636 0)
(-0.0050087 0.0133943 0)
(-0.00174919 -0.00321061 0)
(-0.000365761 -0.0158345 0)
(2.0716e-05 -0.0235039 0)
(0.000560725 -0.0206896 0)
(0.00564363 -0.0166297 0)
(0.00814649 -0.0052472 0)
(0.0087308 -0.00622131 0)
(0.0078139 -0.000359766 0)
(0.0108281 -0.00549469 0)
(0.0049588 -0.00940958 0)
(0.00223787 -0.00687445 0)
(-0.000199617 -0.0108197 0)
(-0.00579727 -0.0199755 0)
(0.00404988 -0.052409 0)
(0.00182818 0.0455141 0)
(0.00513547 0.0333085 0)
(0.00492075 0.0326468 0)
(0.00674879 0.0298152 0)
(0.00648697 0.022931 0)
(0.0129349 0.0116358 0)
(0.0101408 -0.00631788 0)
(0.0124996 -0.0171843 0)
(0.015248 -0.016611 0)
(0.0123349 -0.0149149 0)
(0.00670815 -0.0178487 0)
(-0.00113223 -0.00324069 0)
(0.00859546 -0.00136246 0)
(0.00229653 0.000350726 0)
(0.0129967 -0.00167409 0)
(0.00982932 0.0026088 0)
(0.000454293 0.00328623 0)
(0.00777437 -0.00239993 0)
(-0.00329639 -0.00693329 0)
(0.00753701 -0.0514765 0)
(0.00136333 0.0385923 0)
(0.00824421 0.0261282 0)
(0.00819206 0.0271725 0)
(0.0122302 0.0249347 0)
(0.0166022 0.0177564 0)
(0.0214044 0.00651241 0)
(0.0210505 0.00048826 0)
(0.0281313 -0.0197012 0)
(0.0208756 -0.0258163 0)
(0.0233611 -0.0116594 0)
(0.018224 0.00218422 0)
(0.00282025 -0.00467821 0)
(0.00450073 -0.00758945 0)
(-0.00601923 -0.00822126 0)
(-0.00128274 -0.0126115 0)
(0.00279137 -0.000449469 0)
(-0.00195574 -0.00557469 0)
(0.0156826 -0.0101706 0)
(-0.00492065 -0.0254607 0)
(0.0045837 -0.051505 0)
(0.00211588 0.0361838 0)
(0.0135378 0.0273174 0)
(0.0141902 0.0252605 0)
(0.0180073 0.024474 0)
(0.0208289 0.0123836 0)
(0.0314344 0.008273 0)
(0.0255941 -0.00896397 0)
(0.0391193 -0.0176091 0)
(0.0202022 -0.0167487 0)
(0.0248261 -0.0123335 0)
(0.0182932 -0.00330894 0)
(0.0376055 0.00832867 0)
(0.0290814 0.00517298 0)
(0.0334973 0.00818568 0)
(0.0161605 -0.00686173 0)
(0.00845608 0.00380503 0)
(-0.00208069 -0.00452332 0)
(0.00813026 0.000484012 0)
(-0.00619215 0.0119562 0)
(0.0113616 -0.0486363 0)
(0.00332577 0.0220931 0)
(0.0254431 0.016987 0)
(0.0160294 0.0242403 0)
(0.0251938 0.0159341 0)
(0.02516 0.00529481 0)
(0.0324127 -0.000242097 0)
(0.0339893 -0.00602176 0)
(0.0214447 -0.0112745 0)
(0.00321125 -0.0101747 0)
(0.00127387 -0.0106783 0)
(-0.00870371 -0.0126081 0)
(-0.00079404 -0.0084619 0)
(-0.000425208 -0.00348736 0)
(-0.00361374 0.00308924 0)
(0.0014633 0.0117252 0)
(-0.00363307 0.0115762 0)
(-0.00298075 -0.00761743 0)
(0.0056802 -0.0105316 0)
(-0.00939927 -0.0333 0)
(0.00642741 -0.0534853 0)
(0.00212357 0.00239106 0)
(0.0187367 0.0150057 0)
(0.0245513 0.0207135 0)
(0.0293711 0.0155524 0)
(0.0332255 0.00741527 0)
(0.0359082 0.00116904 0)
(0.0344308 0.00128179 0)
(0.0346853 0.00572267 0)
(0.0326113 0.00467143 0)
(0.0311245 -0.000313677 0)
(0.0250299 0.0031872 0)
(0.0174768 -0.000496863 0)
(0.0134014 0.00703157 0)
(0.0142056 0.00867424 0)
(0.00906925 -0.00743997 0)
(0.0196095 0.0127253 0)
(0.0116711 -0.00929314 0)
(0.0186529 0.00770312 0)
(-0.00250863 0.0188282 0)
(0.0157726 -0.0443069 0)
(-0.0128021 -0.00103075 0)
(-0.00196741 -0.000157353 0)
(0.000203855 0.0128763 0)
(0.00895728 0.00509673 0)
(0.00271752 0.00114289 0)
(0.004295 -0.00201855 0)
(-0.00599036 -0.00514724 0)
(-0.000916466 -0.00691812 0)
(-0.0097716 -0.00686321 0)
(-0.00744363 -0.00388586 0)
(-0.0149235 -0.00123867 0)
(-0.00533418 -0.000324765 0)
(-0.0198615 0.000146129 0)
(0.00765654 0.00663634 0)
(-0.0122952 0.00314597 0)
(0.000906485 0.00927179 0)
(0.00351995 -0.00420831 0)
(-0.0166203 -0.00295249 0)
(0.017675 -0.0312127 0)
(0.0132725 -0.0541343 0)
(0.00231544 0.0158079 0)
(0.0130671 0.00693197 0)
(0.0094333 0.00673871 0)
(0.0282159 0.0104526 0)
(0.0312618 0.0106071 0)
(0.0382496 0.00859711 0)
(0.0400968 0.00754896 0)
(0.0415015 0.00777933 0)
(0.0419327 0.00935426 0)
(0.0428134 0.00704321 0)
(0.0449155 0.00446725 0)
(0.0450929 0.00159805 0)
(0.0468125 0.000387384 0)
(0.0461777 -0.00270409 0)
(0.0482648 0.00207228 0)
(0.0497704 -0.00310751 0)
(0.0524531 0.00301814 0)
(0.0518994 -0.000104851 0)
(0.0443962 -0.0042 0)
(0.0239766 0.00265792 0)
)
;

boundaryField
{
    movingWall
    {
        type            fixedValue;
        value           uniform (1 0 0);
    }
    fixedWalls
    {
        type            noSlip;
    }
    frontAndBack
    {
        type            empty;
    }
}


// ************************************************************************* //
