/*--------------------------------*- C++ -*----------------------------------*\
| =========                 |                                                 |
| \\      /  F ield         | OpenFOAM: The Open Source CFD Toolbox           |
|  \\    /   O peration     | Version:  5.x                                   |
|   \\  /    A nd           | Web:      www.OpenFOAM.org                      |
|    \\/     M anipulation  |                                                 |
\*---------------------------------------------------------------------------*/
FoamFile
{
    version     2.0;
    format      ascii;
    class       volScalarField;
    location    "4.4";
    object      p;
}
// * * * * * * * * * * * * * * * * * * * * * * * * * * * * * * * * * * * * * //

dimensions      [0 2 -2 0 0 0 0];

internalField   nonuniform List<scalar> 
400
(
6.15219e-11
3.99407e-08
2.10169e-07
5.05708e-07
9.81791e-07
1.70558e-06
2.78021e-06
4.35597e-06
6.65706e-06
1.00158e-05
1.493e-05
2.2157e-05
3.2864e-05
4.87957e-05
7.2583e-05
0.000110478
0.000175498
0.000269548
0.000453481
0.00153116
-2.88648e-07
-2.73094e-07
-1.56567e-07
5.07353e-08
3.92275e-07
9.16431e-07
1.69568e-06
2.82988e-06
4.45562e-06
6.76109e-06
1.0001e-05
1.45089e-05
2.07001e-05
2.89007e-05
3.84486e-05
4.77972e-05
6.04914e-05
5.03638e-05
-0.000190547
0.000773466
-9.55928e-07
-9.88218e-07
-9.76167e-07
-9.38745e-07
-8.54539e-07
-7.09907e-07
-4.89235e-07
-1.84046e-07
1.96102e-07
5.98967e-07
8.7497e-07
6.59317e-07
-8.56344e-07
-5.5092e-06
-1.84486e-05
-5.21215e-05
-0.000113699
-0.000131858
-0.000503536
-4.20374e-05
-1.90216e-06
-2.00046e-06
-2.13135e-06
-2.3234e-06
-2.58159e-06
-2.93319e-06
-3.42879e-06
-4.16406e-06
-5.31209e-06
-7.18238e-06
-1.03314e-05
-1.57754e-05
-2.53625e-05
-4.23691e-05
-7.22943e-05
-0.00012853
-0.000240902
-0.000307547
-0.000401046
-0.000363284
-3.03002e-06
-3.20606e-06
-3.50206e-06
-3.95388e-06
-4.59065e-06
-5.47704e-06
-6.72383e-06
-8.51908e-06
-1.11763e-05
-1.52143e-05
-2.1492e-05
-3.14547e-05
-4.75077e-05
-7.37319e-05
-0.00011729
-0.000181202
-0.000323501
-0.000466033
-0.000547676
-0.000577371
-4.21712e-06
-4.47789e-06
-4.94666e-06
-5.66152e-06
-6.66747e-06
-8.05414e-06
-9.97415e-06
-1.26762e-05
-1.65574e-05
-2.22467e-05
-3.07232e-05
-4.35594e-05
-6.33897e-05
-9.28752e-05
-0.000145043
-0.000203897
-0.000347841
-0.000501632
-0.000660528
-0.000634135
-5.33335e-06
-5.68912e-06
-6.33054e-06
-7.2967e-06
-8.62999e-06
-1.04297e-05
-1.28623e-05
-1.61995e-05
-2.08577e-05
-2.74803e-05
-3.70136e-05
-5.06067e-05
-7.2256e-05
-9.60439e-05
-0.000154045
-0.000194686
-0.000313182
-0.000411764
-0.000474907
-0.000449713
-6.24383e-06
-6.71255e-06
-7.5256e-06
-8.72177e-06
-1.03231e-05
-1.24128e-05
-1.51498e-05
-1.87856e-05
-2.36945e-05
-3.04144e-05
-4.0067e-05
-5.12684e-05
-7.49928e-05
-8.83238e-05
-0.000145501
-0.000168213
-0.000248363
-0.000290908
-0.000319583
-0.000299402
-6.80513e-06
-7.47163e-06
-8.46243e-06
-9.93969e-06
-1.17367e-05
-1.40122e-05
-1.68256e-05
-2.04447e-05
-2.51674e-05
-3.11028e-05
-4.09345e-05
-4.71825e-05
-7.20998e-05
-7.51752e-05
-0.000125819
-0.000137083
-0.000195876
-0.000217756
-0.000280571
-0.000248828
-6.85909e-06
-7.81921e-06
-8.9895e-06
-1.07237e-05
-1.26735e-05
-1.4992e-05
-1.77449e-05
-2.1065e-05
-2.54254e-05
-2.92768e-05
-3.98411e-05
-4.08556e-05
-6.31404e-05
-6.30405e-05
-9.88747e-05
-9.65873e-05
-0.000142351
-0.000127469
-0.000170887
-0.00013239
-6.16651e-06
-7.78815e-06
-9.29462e-06
-1.19327e-05
-1.38366e-05
-1.65007e-05
-1.87574e-05
-2.14773e-05
-2.53684e-05
-2.67907e-05
-3.71688e-05
-3.45625e-05
-5.30753e-05
-4.78099e-05
-7.58001e-05
-6.07479e-05
-9.4103e-05
-4.8714e-05
-5.58802e-05
-1.65664e-05
-4.57404e-06
-7.44161e-06
-9.11198e-06
-1.15573e-05
-1.35864e-05
-1.55776e-05
-1.7825e-05
-1.93356e-05
-2.34013e-05
-2.25637e-05
-3.14925e-05
-2.67638e-05
-4.18125e-05
-2.94531e-05
-5.52512e-05
-2.37402e-05
-6.15275e-05
-4.15945e-07
-3.93935e-05
2.05683e-05
-7.37868e-07
-4.62621e-06
-8.90485e-06
-1.34348e-05
-1.61127e-05
-1.92464e-05
-2.02702e-05
-2.15555e-05
-2.3587e-05
-2.17386e-05
-2.77641e-05
-2.11435e-05
-3.35151e-05
-1.78611e-05
-4.00531e-05
-8.55283e-06
-4.15402e-05
2.01636e-05
-5.06713e-05
4.20204e-05
3.26267e-06
-9.34993e-06
-9.70583e-06
-1.38486e-05
-1.52058e-05
-1.61771e-05
-1.73063e-05
-1.70159e-05
-1.84022e-05
-1.58642e-05
-2.02751e-05
-1.17648e-05
-2.23381e-05
-5.24955e-07
-2.37814e-05
2.64643e-05
-2.09939e-05
7.27448e-05
-5.58451e-06
9.09394e-05
1.63944e-05
1.30637e-06
-7.65862e-06
-1.81974e-05
-2.17987e-05
-2.58129e-05
-2.41669e-05
-2.34962e-05
-2.18753e-05
-1.85509e-05
-2.06718e-05
-1.07912e-05
-1.93179e-05
1.27661e-06
-1.84009e-05
2.19379e-05
-1.18616e-05
6.63856e-05
6.40287e-06
0.000111533
1.00975e-05
-3.2144e-05
-1.39277e-05
-2.47007e-05
-2.24803e-05
-1.87725e-05
-1.74437e-05
-1.55425e-05
-1.32887e-05
-9.93767e-06
-9.96457e-06
-1.17004e-06
-5.68834e-06
1.55087e-05
1.80319e-06
5.10587e-05
2.33109e-05
7.3735e-05
3.16525e-05
0.000111906
3.078e-05
-5.07065e-05
-2.80999e-05
-4.41386e-05
-3.69704e-05
-3.89505e-05
-3.0701e-05
-2.65368e-05
-2.07323e-05
-1.86709e-05
-1.5339e-05
-8.33735e-06
-6.41731e-06
1.55031e-06
7.53942e-07
2.25809e-05
-3.26409e-05
4.61039e-05
-5.14988e-05
0.000120017
-1.43725e-05
-0.000168242
-5.46224e-05
-3.63062e-05
-3.25983e-05
-2.49196e-05
-2.05048e-05
-1.75102e-05
-9.81829e-06
-5.69941e-06
-7.15545e-08
5.07867e-06
8.03121e-06
1.80935e-05
1.6649e-06
1.59484e-05
6.75768e-05
7.08898e-05
0.000149117
0.000286041
6.39995e-05
-7.14838e-05
-3.78066e-05
-2.21398e-05
-1.35716e-05
-1.36137e-05
-2.65885e-05
-2.66899e-05
-1.24389e-05
-2.06794e-05
-1.79676e-05
-1.45443e-05
-4.45828e-06
5.58509e-06
1.31011e-06
-3.14284e-05
2.00939e-05
5.39102e-05
2.2167e-05
0.000593972
-7.22837e-05
-4.91168e-05
1.94836e-05
-4.34398e-05
4.8043e-06
2.53665e-06
-4.92903e-06
3.34441e-06
8.36644e-06
6.12499e-06
6.07581e-06
8.14808e-06
1.79179e-05
3.57786e-05
4.76777e-05
6.82199e-05
4.57415e-05
0.000301756
0.000701534
0.00189422
)
;

boundaryField
{
    movingWall
    {
        type            zeroGradient;
    }
    fixedWalls
    {
        type            zeroGradient;
    }
    frontAndBack
    {
        type            empty;
    }
}


// ************************************************************************* //
