/*--------------------------------*- C++ -*----------------------------------*\
| =========                 |                                                 |
| \\      /  F ield         | OpenFOAM: The Open Source CFD Toolbox           |
|  \\    /   O peration     | Version:  5.x                                   |
|   \\  /    A nd           | Web:      www.OpenFOAM.org                      |
|    \\/     M anipulation  |                                                 |
\*---------------------------------------------------------------------------*/
FoamFile
{
    version     2.0;
    format      ascii;
    class       surfaceScalarField;
    location    "4.4";
    object      phi;
}
// * * * * * * * * * * * * * * * * * * * * * * * * * * * * * * * * * * * * * //

dimensions      [0 3 -1 0 0 0 0];

internalField   nonuniform List<scalar> 
760
(
-1.70826e-08
1.70826e-08
-3.54679e-08
1.83853e-08
-5.47085e-08
1.92406e-08
-7.53005e-08
2.0592e-08
-9.77948e-08
2.24943e-08
-1.22849e-07
2.50544e-08
-1.5128e-07
2.84306e-08
-1.84135e-07
3.28548e-08
-2.22783e-07
3.86484e-08
-2.69054e-07
4.62712e-08
-3.25439e-07
5.63852e-08
-3.95377e-07
6.9937e-08
-4.83657e-07
8.82803e-08
-5.97086e-07
1.13429e-07
-7.45746e-07
1.4866e-07
-9.42946e-07
1.97199e-07
-1.19345e-06
2.50504e-07
-1.4665e-06
2.73053e-07
-1.52304e-06
5.65371e-08
-1.52304e-06
-1.78242e-08
3.49067e-08
-3.69727e-08
3.75338e-08
-5.69479e-08
3.92158e-08
-7.82204e-08
4.18646e-08
-1.01308e-07
4.55819e-08
-1.26822e-07
5.05681e-08
-1.55511e-07
5.71199e-08
-1.88322e-07
6.56655e-08
-2.26487e-07
7.68135e-08
-2.71645e-07
9.14298e-08
-3.26016e-07
1.10756e-07
-3.92676e-07
1.36596e-07
-4.76e-07
1.71605e-07
-5.82446e-07
2.19875e-07
-7.22266e-07
2.8848e-07
-9.11139e-07
3.86073e-07
-1.14571e-06
4.85078e-07
-1.27132e-06
3.98661e-07
-1.0609e-06
-1.53883e-07
-2.58394e-06
-1.7056e-08
5.19627e-08
-3.54044e-08
5.58822e-08
-5.45072e-08
5.83186e-08
-7.47804e-08
6.21378e-08
-9.66709e-08
6.74723e-08
-1.20694e-07
7.45917e-08
-1.47471e-07
8.38967e-08
-1.77771e-07
9.59657e-08
-2.12576e-07
1.11618e-07
-2.5316e-07
1.32013e-07
-3.01205e-07
1.58802e-07
-3.58981e-07
1.94372e-07
-4.29587e-07
2.42212e-07
-5.17079e-07
3.07366e-07
-6.24501e-07
3.95902e-07
-7.50114e-07
5.11686e-07
-8.80025e-07
6.14989e-07
-8.70981e-07
3.89618e-07
-3.55937e-07
-6.68927e-07
-2.93988e-06
-1.58442e-08
6.78069e-08
-3.29362e-08
7.29742e-08
-5.06883e-08
7.60707e-08
-6.94399e-08
8.08895e-08
-8.95387e-08
8.75711e-08
-1.11368e-07
9.64212e-08
-1.35372e-07
1.07901e-07
-1.62081e-07
1.22674e-07
-1.92141e-07
1.41678e-07
-2.26349e-07
1.66221e-07
-2.65681e-07
1.98134e-07
-3.11318e-07
2.40009e-07
-3.6461e-07
2.95503e-07
-4.27086e-07
3.69843e-07
-4.98371e-07
4.67187e-07
-5.61625e-07
5.74939e-07
-6.047e-07
6.58064e-07
-5.84447e-07
3.69364e-07
-2.09389e-07
-1.04398e-06
-3.14927e-06
-1.42929e-08
8.20998e-08
-2.97933e-08
8.84746e-08
-4.58557e-08
9.21331e-08
-6.273e-08
9.77638e-08
-8.06445e-08
1.05486e-07
-9.98274e-08
1.15604e-07
-1.20518e-07
1.28592e-07
-1.42976e-07
1.45132e-07
-1.67472e-07
1.66174e-07
-1.94269e-07
1.93018e-07
-2.23555e-07
2.2742e-07
-2.55387e-07
2.7184e-07
-2.89413e-07
3.2953e-07
-3.24119e-07
4.04549e-07
-3.61619e-07
5.04687e-07
-3.7886e-07
5.92181e-07
-3.74154e-07
6.53358e-07
-3.16163e-07
3.11373e-07
-1.98968e-07
-1.16118e-06
-3.34824e-06
-1.24479e-08
9.45477e-08
-2.60888e-08
1.02116e-07
-4.02153e-08
1.0626e-07
-5.49799e-08
1.12528e-07
-7.04819e-08
1.20988e-07
-8.6781e-08
1.31903e-07
-1.03908e-07
1.45719e-07
-1.21853e-07
1.63077e-07
-1.40537e-07
1.84858e-07
-1.59757e-07
2.12238e-07
-1.79017e-07
2.46681e-07
-1.97265e-07
2.90088e-07
-2.13727e-07
3.45992e-07
-2.18286e-07
4.09109e-07
-2.23484e-07
5.09885e-07
-1.93808e-07
5.62504e-07
-1.32776e-07
5.92326e-07
-1.97731e-08
1.9837e-07
9.47613e-08
-1.27571e-06
-3.25347e-06
-1.03222e-08
1.0487e-07
-2.1905e-08
1.13698e-07
-3.39365e-08
1.18291e-07
-4.64986e-08
1.25091e-07
-5.95233e-08
1.34012e-07
-7.28994e-08
1.45279e-07
-8.64393e-08
1.59259e-07
-9.98802e-08
1.76518e-07
-1.12809e-07
1.97788e-07
-1.24606e-07
2.24035e-07
-1.34409e-07
2.56483e-07
-1.38974e-07
2.94653e-07
-1.41833e-07
3.48851e-07
-1.22724e-07
3.9e-07
-1.03016e-07
4.90176e-07
-4.57028e-08
5.05191e-07
4.2657e-08
5.03966e-07
1.41469e-07
9.95581e-08
1.95598e-07
-1.32984e-06
-3.05788e-06
-7.9222e-09
1.12792e-07
-1.73034e-08
1.2308e-07
-2.71771e-08
1.28165e-07
-3.75504e-08
1.35464e-07
-4.82053e-08
1.44667e-07
-5.88155e-08
1.55889e-07
-6.90372e-08
1.6948e-07
-7.84209e-08
1.85901e-07
-8.63971e-08
2.05764e-07
-9.19396e-08
2.29577e-07
-9.53562e-08
2.599e-07
-8.81952e-08
2.87492e-07
-8.30521e-08
3.43708e-07
-5.49735e-08
3.61922e-07
-1.53309e-08
4.50534e-07
4.28704e-08
4.4699e-07
1.15558e-07
4.31279e-07
1.69488e-07
4.56277e-08
5.57423e-08
-1.2161e-06
-3.00213e-06
-4.97854e-09
1.17771e-07
-1.21644e-08
1.30265e-07
-1.97408e-08
1.35741e-07
-2.83728e-08
1.44096e-07
-3.68892e-08
1.53183e-07
-4.5157e-08
1.64157e-07
-5.24188e-08
1.76742e-07
-5.81692e-08
1.91652e-07
-6.1797e-08
2.09392e-07
-6.0715e-08
2.28496e-07
-5.88681e-08
2.58053e-07
-4.54584e-08
2.74082e-07
-2.85648e-08
3.26814e-07
-1.09463e-09
3.34452e-07
4.58218e-08
4.03617e-07
1.07249e-07
3.85562e-07
1.65794e-07
3.72734e-07
2.03292e-07
8.12989e-09
8.69532e-08
-1.09976e-06
-2.91518e-06
-1.84391e-09
1.19615e-07
-6.742e-09
1.35163e-07
-1.22835e-08
1.41283e-07
-1.91091e-08
1.50922e-07
-2.58205e-08
1.59895e-07
-3.20685e-08
1.70405e-07
-3.70809e-08
1.81755e-07
-4.01013e-08
1.94672e-07
-4.1273e-08
2.10563e-07
-3.7032e-08
2.24255e-07
-3.16239e-08
2.52645e-07
-1.89728e-08
2.61431e-07
3.82286e-09
3.04018e-07
3.05233e-08
3.07751e-07
7.47403e-08
3.594e-07
1.31496e-07
3.28806e-07
1.91509e-07
3.12722e-07
2.28584e-07
-2.89457e-08
1.72123e-07
-1.0433e-06
-2.74306e-06
4.45497e-09
1.1516e-07
2.17548e-09
1.37443e-07
-1.61893e-09
1.45077e-07
-9.14949e-09
1.58452e-07
-1.52742e-08
1.6602e-07
-2.17887e-08
1.7692e-07
-2.49756e-08
1.84941e-07
-2.53617e-08
1.95058e-07
-2.30875e-08
2.08289e-07
-1.63921e-08
2.17559e-07
-3.36697e-09
2.39619e-07
1.08302e-08
2.47234e-07
3.67847e-08
2.78064e-07
6.93369e-08
2.75199e-07
1.07784e-07
3.20953e-07
1.58729e-07
2.77861e-07
1.96767e-07
2.74684e-07
1.91872e-07
-2.40511e-08
7.64493e-08
-9.27874e-07
-2.66661e-06
8.41213e-09
1.06747e-07
5.71065e-09
1.40144e-07
1.83471e-09
1.48953e-07
-1.74853e-09
1.62035e-07
-5.87707e-09
1.70148e-07
-8.80091e-09
1.79844e-07
-1.07415e-08
1.86882e-07
-1.0815e-08
1.95132e-07
-7.49344e-09
2.04968e-07
-3.30536e-09
2.13371e-07
8.35427e-09
2.2796e-07
1.91296e-08
2.36458e-07
4.00332e-08
2.5716e-07
5.90803e-08
2.56152e-07
9.3987e-08
2.86047e-07
1.23041e-07
2.48808e-07
1.55808e-07
2.41917e-07
1.63547e-07
-3.17906e-08
9.96817e-09
-7.74295e-07
-2.65664e-06
3.16428e-08
7.51046e-08
3.59006e-08
1.35887e-07
3.15164e-08
1.53337e-07
1.53159e-08
1.78236e-07
3.13249e-09
1.82331e-07
-7.38007e-09
1.90356e-07
-1.02772e-08
1.89779e-07
-9.25216e-09
1.94107e-07
-1.62708e-09
1.97342e-07
7.27034e-09
2.04474e-07
2.41726e-08
2.11058e-07
4.17381e-08
2.18893e-07
6.81828e-08
2.30716e-07
9.70282e-08
2.27306e-07
1.31053e-07
2.52022e-07
1.64904e-07
2.14957e-07
1.85059e-07
2.21762e-07
1.38405e-07
1.48629e-08
4.51188e-08
-6.81009e-07
-2.61152e-06
3.85425e-08
3.65621e-08
1.42609e-08
1.60168e-07
7.56363e-09
1.60034e-07
1.06557e-08
1.75144e-07
9.27157e-09
1.83716e-07
8.93858e-09
1.90689e-07
9.23712e-09
1.89481e-07
1.04408e-08
1.92903e-07
1.54595e-08
1.92324e-07
2.14162e-08
1.98517e-07
3.12058e-08
2.01268e-07
3.94188e-08
2.1068e-07
5.51965e-08
2.14938e-07
5.54316e-08
2.27071e-07
8.26069e-08
2.24846e-07
6.90683e-08
2.28495e-07
1.25308e-07
1.65523e-07
1.35194e-07
4.97732e-09
7.88328e-08
-6.24648e-07
-2.53269e-06
1.22222e-07
-8.56603e-08
1.22022e-07
1.60369e-07
9.18146e-08
1.90242e-07
3.19461e-08
2.35012e-07
-3.74458e-09
2.19406e-07
-2.34442e-08
2.10389e-07
-2.4633e-08
1.90669e-07
-1.89526e-08
1.87223e-07
-6.01427e-09
1.79385e-07
6.89134e-09
1.85611e-07
2.85248e-08
1.79635e-07
4.563e-08
1.93575e-07
7.48849e-08
1.85683e-07
9.59382e-08
2.06018e-07
1.42149e-07
1.78635e-07
1.56999e-07
2.13646e-07
1.79602e-07
1.42919e-07
5.62458e-08
1.28334e-07
-6.6494e-09
-5.61753e-07
-2.53934e-06
2.07453e-07
-2.93113e-07
1.07736e-07
2.60086e-07
1.14645e-07
1.83333e-07
1.13829e-07
2.35828e-07
8.85529e-08
2.44682e-07
6.64578e-08
2.32484e-07
5.74926e-08
1.99635e-07
5.35543e-08
1.91161e-07
5.73802e-08
1.75559e-07
6.357e-08
1.79422e-07
7.15571e-08
1.71647e-07
7.84764e-08
1.86655e-07
9.02527e-08
1.73907e-07
7.43919e-08
2.21879e-07
6.63476e-08
1.8668e-07
-7.98421e-10
2.80792e-07
1.05179e-07
3.69419e-08
6.39714e-08
1.69541e-07
2.74048e-08
-5.25186e-07
-2.51193e-06
1.51874e-07
-4.44987e-07
-9.58893e-08
5.07848e-07
-2.52541e-07
3.39985e-07
-2.79924e-07
2.6321e-07
-2.75761e-07
2.4052e-07
-2.38483e-07
1.95206e-07
-1.98063e-07
1.59215e-07
-1.62969e-07
1.56067e-07
-1.26463e-07
1.39053e-07
-1.00601e-07
1.5356e-07
-6.735e-08
1.38396e-07
-4.07587e-08
1.60064e-07
-1.04749e-08
1.43623e-07
-2.08185e-09
2.13486e-07
8.23338e-08
1.02264e-07
1.56715e-08
3.47454e-07
1.50783e-07
-9.81694e-08
1.11224e-07
2.091e-07
3.24015e-08
-4.46364e-07
-2.47953e-06
1.88278e-08
-4.63814e-07
4.00544e-07
1.26133e-07
4.26127e-07
3.14402e-07
4.67156e-07
2.22181e-07
5.23815e-07
1.83861e-07
5.23955e-07
1.95066e-07
5.42351e-07
1.40819e-07
5.14276e-07
1.84141e-07
5.14328e-07
1.39002e-07
4.74749e-07
1.93138e-07
4.59053e-07
1.54092e-07
4.30979e-07
1.88137e-07
4.20225e-07
1.54377e-07
4.17735e-07
2.15976e-07
4.30063e-07
8.99363e-08
3.04384e-07
4.73133e-07
2.53247e-07
-4.70332e-08
1.55828e-07
3.0652e-07
2.53652e-07
-5.44188e-07
-2.22588e-06
-8.50262e-07
3.86447e-07
-9.7041e-07
2.46281e-07
-8.84994e-07
2.28986e-07
-8.46678e-07
1.83865e-07
-8.1402e-07
1.51203e-07
-7.88415e-07
1.69461e-07
-7.89485e-07
1.41889e-07
-7.36792e-07
1.31447e-07
-7.05051e-07
1.07262e-07
-6.49147e-07
1.37235e-07
-6.07516e-07
1.12461e-07
-5.21043e-07
1.01665e-07
-4.58924e-07
9.22576e-08
-3.39718e-07
9.67693e-08
-3.24758e-07
7.49769e-08
-2.5989e-08
1.74364e-07
1.93681e-08
-9.23903e-08
3.13628e-07
1.22604e-08
6.66483e-07
-8.97043e-07
-1.5594e-06
3.86447e-07
6.32728e-07
8.61715e-07
1.04558e-06
1.19678e-06
1.36624e-06
1.50813e-06
1.63958e-06
1.74684e-06
1.88408e-06
1.99654e-06
2.0982e-06
2.19046e-06
2.28723e-06
2.36221e-06
2.53657e-06
2.44418e-06
2.45644e-06
1.5594e-06
)
;

boundaryField
{
    movingWall
    {
        type            calculated;
        value           uniform 0;
    }
    fixedWalls
    {
        type            calculated;
        value           uniform 0;
    }
    frontAndBack
    {
        type            empty;
        value           nonuniform 0();
    }
}


// ************************************************************************* //
