/*--------------------------------*- C++ -*----------------------------------*\
| =========                 |                                                 |
| \\      /  F ield         | OpenFOAM: The Open Source CFD Toolbox           |
|  \\    /   O peration     | Version:  5.x                                   |
|   \\  /    A nd           | Web:      www.OpenFOAM.org                      |
|    \\/     M anipulation  |                                                 |
\*---------------------------------------------------------------------------*/
FoamFile
{
    version     2.0;
    format      ascii;
    class       volVectorField;
    location    "0.3";
    object      U;
}
// * * * * * * * * * * * * * * * * * * * * * * * * * * * * * * * * * * * * * //

dimensions      [0 1 -1 0 0 0 0];

internalField   nonuniform List<vector> 
400
(
(-1.23984e-05 1.23725e-05 0)
(-3.69374e-05 1.21107e-05 0)
(-6.05848e-05 1.14816e-05 0)
(-8.26783e-05 1.05649e-05 0)
(-0.000102674 9.39078e-06 0)
(-0.000120093 7.99505e-06 0)
(-0.000134531 6.41682e-06 0)
(-0.000145663 4.69642e-06 0)
(-0.000153246 2.87415e-06 0)
(-0.000157116 9.89718e-07 0)
(-0.000157188 -9.17663e-07 0)
(-0.000153455 -2.80883e-06 0)
(-0.00014599 -4.64402e-06 0)
(-0.000134944 -6.38243e-06 0)
(-0.000120553 -7.98219e-06 0)
(-0.000103136 -9.40098e-06 0)
(-8.30969e-05 -1.05975e-05 0)
(-6.09181e-05 -1.15335e-05 0)
(-3.71518e-05 -1.21767e-05 0)
(-1.24722e-05 -1.24459e-05 0)
(-1.27756e-05 3.74998e-05 0)
(-3.80581e-05 3.67028e-05 0)
(-6.24126e-05 3.47907e-05 0)
(-8.51539e-05 3.20058e-05 0)
(-0.000105722 2.84417e-05 0)
(-0.000123626 2.42084e-05 0)
(-0.000138455 1.94253e-05 0)
(-0.000149883 1.4215e-05 0)
(-0.000157665 8.69913e-06 0)
(-0.000161637 2.997e-06 0)
(-0.000161716 -2.77407e-06 0)
(-0.000157894 -8.49697e-06 0)
(-0.000150241 -1.40527e-05 0)
(-0.000138908 -1.93186e-05 0)
(-0.000124131 -2.41683e-05 0)
(-0.00010623 -2.8473e-05 0)
(-8.56147e-05 -3.21066e-05 0)
(-6.27799e-05 -3.49515e-05 0)
(-3.82944e-05 -3.69078e-05 0)
(-1.28571e-05 -3.77275e-05 0)
(-1.34278e-05 6.36561e-05 0)
(-3.99937e-05 6.22916e-05 0)
(-6.55645e-05 5.90262e-05 0)
(-8.94128e-05 5.42764e-05 0)
(-0.00011095 4.82072e-05 0)
(-0.000129669 4.10106e-05 0)
(-0.000145151 3.28928e-05 0)
(-0.000157068 2.40626e-05 0)
(-0.000165177 1.47248e-05 0)
(-0.00016932 5.07809e-06 0)
(-0.000169413 -4.68339e-06 0)
(-0.000165447 -1.43666e-05 0)
(-0.00015749 -2.37745e-05 0)
(-0.000145687 -3.27029e-05 0)
(-0.000130268 -4.09384e-05 0)
(-0.000111554 -4.82617e-05 0)
(-8.99611e-05 -5.44545e-05 0)
(-6.60025e-05 -5.93115e-05 0)
(-4.0276e-05 -6.26562e-05 0)
(-1.35252e-05 -6.40613e-05 0)
(-1.44363e-05 9.14642e-05 0)
(-4.29848e-05 8.94769e-05 0)
(-7.04287e-05 8.47391e-05 0)
(-9.59736e-05 7.78623e-05 0)
(-0.000118989 6.90975e-05 0)
(-0.000138941 5.87332e-05 0)
(-0.000155404 4.70728e-05 0)
(-0.000168052 3.44182e-05 0)
(-0.00017665 2.10597e-05 0)
(-0.000181047 7.27414e-06 0)
(-0.000181162 -6.67127e-06 0)
(-0.000176986 -2.05118e-05 0)
(-0.000168578 -3.39765e-05 0)
(-0.000156073 -4.678e-05 0)
(-0.000139691 -5.86199e-05 0)
(-0.000119747 -6.91785e-05 0)
(-9.6665e-05 -7.81335e-05 0)
(-7.09825e-05 -8.51766e-05 0)
(-4.33426e-05 -9.00377e-05 0)
(-1.45599e-05 -9.20885e-05 0)
(-1.58405e-05 0.000121676 0)
(-4.71448e-05 0.000118979 0)
(-7.71797e-05 0.000112585 0)
(-0.000105054 0.000103334 0)
(-0.00013008 9.15878e-05 0)
(-0.000151694 7.77538e-05 0)
(-0.000169466 6.22499e-05 0)
(-0.000183081 4.54803e-05 0)
(-0.000192321 2.78233e-05 0)
(-0.000197051 9.63072e-06 0)
(-0.000197199 -8.76463e-06 0)
(-0.000192752 -2.7035e-05 0)
(-0.000183758 -4.48421e-05 0)
(-0.00017033 -6.18236e-05 0)
(-0.000152666 -7.75847e-05 0)
(-0.000131067 -9.16991e-05 0)
(-0.000105959 -0.000103722 0)
(-7.79074e-05 -0.000113217 0)
(-4.76163e-05 -0.000119793 0)
(-1.60036e-05 -0.000122584 0)
(-1.76992e-05 0.000155136 0)
(-5.26423e-05 0.000151599 0)
(-8.60743e-05 0.00014328 0)
(-0.000116971 0.000131298 0)
(-0.000144569 0.000116168 0)
(-0.000168279 9.84484e-05 0)
(-0.000187678 7.86974e-05 0)
(-0.000202479 5.74339e-05 0)
(-0.0002125 3.51255e-05 0)
(-0.000217635 1.21911e-05 0)
(-0.000217828 -1.0984e-05 0)
(-0.000213063 -3.40242e-05 0)
(-0.000203367 -5.65376e-05 0)
(-0.000188816 -7.80924e-05 0)
(-0.000169566 -9.82002e-05 0)
(-0.000145884 -0.000116313 0)
(-0.000118183 -0.000131836 0)
(-8.70544e-05 -0.000144167 0)
(-5.32799e-05 -0.000152749 0)
(-1.79202e-05 -0.000156424 0)
(-2.00989e-05 0.000192831 0)
(-5.97232e-05 0.00018826 0)
(-9.74811e-05 0.000177626 0)
(-0.000132166 0.00016241 0)
(-0.000162929 0.00014334 0)
(-0.000189164 0.000121182 0)
(-0.000210481 9.66655e-05 0)
(-0.000226653 7.04392e-05 0)
(-0.000237564 4.30582e-05 0)
(-0.00024316 1.49935e-05 0)
(-0.000243414 -1.33398e-05 0)
(-0.000238306 -4.15444e-05 0)
(-0.000227826 -6.91986e-05 0)
(-0.000211993 -9.58165e-05 0)
(-0.000190886 -0.000120819 0)
(-0.000164703 -0.000143519 0)
(-0.000133813 -0.000163139 0)
(-9.88225e-05 -0.000178852 0)
(-6.06008e-05 -0.000189867 0)
(-2.04041e-05 -0.000194639 0)
(-2.31673e-05 0.000235958 0)
(-6.87456e-05 0.000230057 0)
(-0.000111925 0.00021654 0)
(-0.000151256 0.000197377 0)
(-0.000185797 0.000173611 0)
(-0.000214954 0.000146288 0)
(-0.000238421 0.000116356 0)
(-0.000256086 8.46092e-05 0)
(-0.000267946 5.16808e-05 0)
(-0.000274033 1.80668e-05 0)
(-0.000274366 -1.58263e-05 0)
(-0.000268922 -4.96213e-05 0)
(-0.000257639 -8.29057e-05 0)
(-0.000240436 -0.000115169 0)
(-0.000217269 -0.000145752 0)
(-0.000188205 -0.000173817 0)
(-0.000153516 -0.000198351 0)
(-0.000113783 -0.000218222 0)
(-6.99712e-05 -0.000232291 0)
(-2.35955e-05 -0.000238488 0)
(-2.70969e-05 0.00028602 0)
(-8.02399e-05 0.000278329 0)
(-0.000130162 0.000261084 0)
(-0.000175095 0.000236956 0)
(-0.000214019 0.000207457 0)
(-0.000246419 0.000174024 0)
(-0.000272159 0.00013788 0)
(-0.000291328 9.99747e-05 0)
(-0.000304107 6.09971e-05 0)
(-0.000310668 2.14218e-05 0)
(-0.000311102 -1.84131e-05 0)
(-0.000305385 -5.82165e-05 0)
(-0.000293374 -9.76473e-05 0)
(-0.000274839 -0.000136221 0)
(-0.000249534 -0.000173227 0)
(-0.000217301 -0.000207665 0)
(-0.000178218 -0.000238233 0)
(-0.000132765 -0.000263375 0)
(-8.19758e-05 -0.000281431 0)
(-2.77077e-05 -0.00028957 0)
(-3.21887e-05 0.000344993 0)
(-9.50136e-05 0.000334758 0)
(-0.000153299 0.000312498 0)
(-0.000204883 0.00028193 0)
(-0.000248729 0.000245273 0)
(-0.000284532 0.000204506 0)
(-0.00031247 0.000161189 0)
(-0.000332968 0.000116429 0)
(-0.000346499 7.09197e-05 0)
(-0.000353443 2.50392e-05 0)
(-0.000354004 -2.1034e-05 0)
(-0.000348156 -6.71921e-05 0)
(-0.000335644 -0.000113262 0)
(-0.000316015 -0.000158868 0)
(-0.000288713 -0.000203304 0)
(-0.000253211 -0.000245421 0)
(-0.000209226 -0.000283565 0)
(-0.000156985 -0.000315598 0)
(-9.75126e-05 -0.000339072 0)
(-3.30775e-05 -0.000350006 0)
(-3.89368e-05 0.00041559 0)
(-0.00011434 0.00040151 0)
(-0.000182992 0.000372226 0)
(-0.000242321 0.000333044 0)
(-0.000291443 0.000287261 0)
(-0.000330503 0.000237586 0)
(-0.000360236 0.000185973 0)
(-0.000381598 0.000133648 0)
(-0.000395497 8.12218e-05 0)
(-0.000402621 2.88516e-05 0)
(-0.000403333 -2.35753e-05 0)
(-0.000397613 -7.62676e-05 0)
(-0.00038505 -0.000129357 0)
(-0.000364881 -0.000182714 0)
(-0.000336087 -0.000235749 0)
(-0.000297563 -0.000287216 0)
(-0.000248395 -0.000335065 0)
(-0.000188275 -0.000376382 0)
(-0.000118011 -0.000407525 0)
(-4.02653e-05 -0.00042275 0)
(-4.8202e-05 0.00050175 0)
(-0.000140312 0.000481429 0)
(-0.000221767 0.000441904 0)
(-0.000289848 0.000390872 0)
(-0.000344187 0.000333241 0)
(-0.00038582 0.000272663 0)
(-0.000416408 0.000211508 0)
(-0.00043772 0.000151001 0)
(-0.000451296 9.14865e-05 0)
(-0.00045824 3.27252e-05 0)
(-0.000459123 -2.58607e-05 0)
(-0.000453938 -8.49707e-05 0)
(-0.00044209 -0.000145223 0)
(-0.000422407 -0.000206929 0)
(-0.000393215 -0.000269824 0)
(-0.000352527 -0.000332733 0)
(-0.000298392 -0.000393221 0)
(-0.00022945 -0.000447394 0)
(-0.000145846 -0.000489834 0)
(-5.02624e-05 -0.000512144 0)
(-6.15897e-05 0.00060953 0)
(-0.00017652 0.000578254 0)
(-0.00027355 0.000523257 0)
(-0.000350983 0.000455517 0)
(-0.000409652 0.000382307 0)
(-0.000452236 0.000308425 0)
(-0.000481898 0.000236489 0)
(-0.00050162 0.000167425 0)
(-0.000513772 0.000101034 0)
(-0.000519969 3.64336e-05 0)
(-0.000521029 -2.76352e-05 0)
(-0.000516975 -9.25718e-05 0)
(-0.000507008 -0.000159707 0)
(-0.000489482 -0.00023006 0)
(-0.000461891 -0.000304012 0)
(-0.000420959 -0.000380816 0)
(-0.000363057 -0.000457928 0)
(-0.000284895 -0.000530321 0)
(-0.000185141 -0.000589984 0)
(-6.49495e-05 -0.000624966 0)
(-8.23062e-05 0.000748737 0)
(-0.000229419 0.000696755 0)
(-0.000344504 0.00061774 0)
(-0.000430799 0.000525995 0)
(-0.00049128 0.000432325 0)
(-0.000531639 0.000342482 0)
(-0.000557409 0.000258763 0)
(-0.000573175 0.000181269 0)
(-0.000582287 0.000108838 0)
(-0.00058691 3.96241e-05 0)
(-0.000588129 -2.85569e-05 0)
(-0.00058601 -9.80235e-05 0)
(-0.000579578 -0.000171071 0)
(-0.000566712 -0.000249769 0)
(-0.000543971 -0.000335615 0)
(-0.000506443 -0.000428916 0)
(-0.000447896 -0.000527744 0)
(-0.000361515 -0.000626386 0)
(-0.000243392 -0.000712984 0)
(-8.8145e-05 -0.000772456 0)
(-0.000117023 0.000937827 0)
(-0.000311003 0.000842606 0)
(-0.000444307 0.000725533 0)
(-0.000536402 0.000599155 0)
(-0.000593167 0.000479143 0)
(-0.000625799 0.000370821 0)
(-0.000643112 0.000275031 0)
(-0.000651545 0.00019016 0)
(-0.000655418 0.000113471 0)
(-0.000657364 4.17951e-05 0)
(-0.000658677 -2.82039e-05 0)
(-0.000659489 -9.99392e-05 0)
(-0.000658754 -0.000176893 0)
(-0.000654027 -0.000262556 0)
(-0.000641037 -0.000360195 0)
(-0.000613087 -0.00047219 0)
(-0.000560523 -0.000598641 0)
(-0.000470152 -0.000735003 0)
(-0.000334783 -0.000864339 0)
(-0.00012803 -0.000974895 0)
(-0.000181768 0.00119415 0)
(-0.000446142 0.00101896 0)
(-0.000587936 0.000842668 0)
(-0.0006772 0.000667829 0)
(-0.000719617 0.000515327 0)
(-0.000735752 0.000387165 0)
(-0.000738071 0.000280609 0)
(-0.000734735 0.000190955 0)
(-0.000730651 0.000113142 0)
(-0.000728585 4.23096e-05 0)
(-0.000729863 -2.61222e-05 0)
(-0.000734699 -9.66745e-05 0)
(-0.000742196 -0.000174083 0)
(-0.000750015 -0.000263582 0)
(-0.000753605 -0.000370955 0)
(-0.000744887 -0.000502126 0)
(-0.000710697 -0.0006618 0)
(-0.000627253 -0.000850625 0)
(-0.000487689 -0.00104672 0)
(-0.000203379 -0.0012633 0)
(-0.000296931 0.00167777 0)
(-0.000668611 0.00123588 0)
(-0.000795366 0.000961431 0)
(-0.000863777 0.000718759 0)
(-0.000873834 0.000528742 0)
(-0.000860516 0.000382381 0)
(-0.000839321 0.000269414 0)
(-0.000819012 0.000179968 0)
(-0.000804063 0.000105851 0)
(-0.000796628 4.04251e-05 0)
(-0.000797662 -2.19272e-05 0)
(-0.000807451 -8.65846e-05 0)
(-0.000825662 -0.000159273 0)
(-0.000850901 -0.000246939 0)
(-0.000879584 -0.000358515 0)
(-0.000903932 -0.000505465 0)
(-0.000908987 -0.00070138 0)
(-0.000855204 -0.000962775 0)
(-0.000752489 -0.0012656 0)
(-0.000351478 -0.00176599 0)
(-0.000624151 0.00192362 0)
(-0.00117135 0.0013802 0)
(-0.00110381 0.00102312 0)
(-0.00110982 0.000718088 0)
(-0.00105597 0.000498938 0)
(-0.000995077 0.000344909 0)
(-0.000940479 0.000235208 0)
(-0.000898288 0.000153959 0)
(-0.000870176 9.00692e-05 0)
(-0.000856336 3.56913e-05 0)
(-0.000856837 -1.52444e-05 0)
(-0.000871998 -6.81652e-05 0)
(-0.00090249 -0.000129084 0)
(-0.000949178 -0.000205799 0)
(-0.00101202 -0.000309561 0)
(-0.0010876 -0.00045719 0)
(-0.00116768 -0.000671745 0)
(-0.0011918 -0.000989023 0)
(-0.00129337 -0.00134147 0)
(-0.000707146 -0.00217732 0)
(-0.00119299 0.00435508 0)
(-0.00172867 0.00162695 0)
(-0.00151905 0.00110529 0)
(-0.00141336 0.000651222 0)
(-0.00125281 0.00040233 0)
(-0.00111978 0.000258643 0)
(-0.00101974 0.00016847 0)
(-0.000949665 0.000107458 0)
(-0.000904994 6.24468e-05 0)
(-0.000882297 2.5683e-05 0)
(-0.000879753 -8.10126e-06 0)
(-0.000897282 -4.32981e-05 0)
(-0.000936567 -8.51135e-05 0)
(-0.00100087 -0.000141419 0)
(-0.00109453 -0.000226373 0)
(-0.00121914 -0.000368844 0)
(-0.00137347 -0.000620899 0)
(-0.00141501 -0.00113211 0)
(-0.00174219 -0.00179023 0)
(-0.000791753 -0.00470326 0)
(0.00539365 0.00358379 0)
(0.00441009 0.00110432 0)
(0.00671986 0.00065178 0)
(0.00715806 0.00033954 0)
(0.00755585 0.000185957 0)
(0.00780591 0.000110117 0)
(0.00796157 6.82699e-05 0)
(0.00806072 4.26662e-05 0)
(0.00812157 2.51552e-05 0)
(0.00815354 1.16272e-05 0)
(0.00816105 -3.14227e-07 0)
(0.00814479 -1.25027e-05 0)
(0.00810175 -2.70321e-05 0)
(0.00802402 -4.73964e-05 0)
(0.00789371 -8.06838e-05 0)
(0.00768601 -0.000144068 0)
(0.00726875 -0.000268162 0)
(0.00702518 -0.000592422 0)
(0.00446179 -0.000965391 0)
(0.00567797 -0.00343178 0)
)
;

boundaryField
{
    movingWall
    {
        type            fixedValue;
        value           uniform (1 0 0);
    }
    fixedWalls
    {
        type            noSlip;
    }
    frontAndBack
    {
        type            empty;
    }
}


// ************************************************************************* //
