/*--------------------------------*- C++ -*----------------------------------*\
| =========                 |                                                 |
| \\      /  F ield         | OpenFOAM: The Open Source CFD Toolbox           |
|  \\    /   O peration     | Version:  5.x                                   |
|   \\  /    A nd           | Web:      www.OpenFOAM.org                      |
|    \\/     M anipulation  |                                                 |
\*---------------------------------------------------------------------------*/
FoamFile
{
    version     2.0;
    format      ascii;
    class       surfaceScalarField;
    location    "10.9";
    object      phi;
}
// * * * * * * * * * * * * * * * * * * * * * * * * * * * * * * * * * * * * * //

dimensions      [0 3 -1 0 0 0 0];

internalField   nonuniform List<scalar> 
760
(
-1.03356e-06
1.03356e-06
-1.79522e-06
7.61657e-07
-2.08621e-06
2.90995e-07
-2.24183e-06
1.55615e-07
-2.33006e-06
8.82262e-08
-2.3268e-06
-3.26043e-09
-2.33671e-06
9.91173e-09
-2.36996e-06
3.32532e-08
-2.37094e-06
9.82184e-10
-2.36564e-06
-5.29894e-09
-2.38447e-06
1.88245e-08
-2.39933e-06
1.48647e-08
-2.42312e-06
2.37862e-08
-2.35639e-06
-6.67336e-08
-2.37494e-06
1.85594e-08
-2.29262e-06
-8.23256e-08
-2.18864e-06
-1.03981e-07
-1.8742e-06
-3.1444e-07
-1.23599e-06
-6.38207e-07
-1.23599e-06
-6.1057e-07
1.64413e-06
-8.42508e-07
9.93595e-07
-9.14373e-07
3.62861e-07
-9.71709e-07
2.1295e-07
-9.71699e-07
8.82168e-08
-1.02155e-06
4.65891e-08
-1.03207e-06
2.04307e-08
-1.0187e-06
1.98819e-08
-1.02683e-06
9.11846e-09
-1.01896e-06
-1.31706e-08
-1.00583e-06
5.69003e-09
-9.5713e-07
-3.38316e-08
-9.36179e-07
2.83512e-09
-9.25482e-07
-7.74313e-08
-9.19652e-07
1.27303e-08
-9.57169e-07
-4.48086e-08
-1.06927e-06
8.1159e-09
-1.0756e-06
-3.08111e-07
-9.13003e-07
-8.00801e-07
-2.14899e-06
-2.96733e-07
1.94086e-06
-3.42556e-07
1.03942e-06
-3.24736e-07
3.45041e-07
-3.02973e-07
1.91187e-07
-3.08027e-07
9.32708e-08
-3.2756e-07
6.61223e-08
-3.10516e-07
3.38681e-09
-2.89975e-07
-6.59806e-10
-2.73778e-07
-7.07786e-09
-2.51658e-07
-3.52914e-08
-2.11101e-07
-3.48668e-08
-2.03362e-07
-4.15703e-08
-1.73479e-07
-2.70483e-08
-1.90089e-07
-6.08211e-08
-1.98751e-07
2.13924e-08
-2.22068e-07
-2.14919e-08
-2.11384e-07
-2.5681e-09
-1.3302e-07
-3.86474e-07
-2.31481e-07
-7.02339e-07
-2.38047e-06
-3.43553e-08
1.97522e-06
-2.72397e-08
1.0323e-06
-7.21513e-08
3.89952e-07
-1.20773e-07
2.39808e-07
-1.78075e-07
1.50573e-07
-2.14336e-07
1.02383e-07
-2.1491e-07
3.96092e-09
-2.12781e-07
-2.78921e-09
-1.89791e-07
-3.0067e-08
-1.78352e-07
-4.67303e-08
-1.72902e-07
-4.03171e-08
-1.63627e-07
-5.08456e-08
-1.83094e-07
-7.58148e-09
-1.90849e-07
-5.30656e-08
-2.20917e-07
5.14601e-08
-1.64419e-07
-7.79896e-08
-1.3997e-07
-2.70174e-08
-2.39071e-07
-2.87373e-07
-2.09689e-07
-7.31721e-07
-2.59016e-06
-3.34339e-08
2.00865e-06
-2.47421e-08
1.02361e-06
-1.29786e-07
4.94996e-07
-1.9412e-07
3.04142e-07
-2.39002e-07
1.95455e-07
-2.58434e-07
1.21816e-07
-2.62863e-07
8.38969e-09
-2.43365e-07
-2.22874e-08
-2.09471e-07
-6.39615e-08
-1.77747e-07
-7.84534e-08
-1.38561e-07
-7.95034e-08
-9.88334e-08
-9.05734e-08
-5.58925e-08
-5.05223e-08
-7.37942e-09
-1.01579e-07
4.68888e-08
-2.80818e-09
1.18765e-07
-1.49866e-07
1.12144e-07
-2.03971e-08
5.70811e-08
-2.3231e-07
6.04484e-09
-6.80685e-07
-2.58412e-06
1.21338e-08
1.99652e-06
-5.41255e-08
1.08987e-06
-1.99176e-07
6.40047e-07
-2.78752e-07
3.83718e-07
-3.08863e-07
2.25566e-07
-3.03128e-07
1.16081e-07
-2.87851e-07
-6.88731e-09
-2.49512e-07
-6.06264e-08
-2.09202e-07
-1.04271e-07
-1.72147e-07
-1.15508e-07
-1.51335e-07
-1.00316e-07
-1.23947e-07
-1.17962e-07
-1.16158e-07
-5.83107e-08
-1.01571e-07
-1.16167e-07
-8.67134e-08
-1.76652e-08
-1.05237e-07
-1.31342e-07
-7.61793e-08
-4.94546e-08
-5.74924e-08
-2.50997e-07
-5.83574e-08
-6.7982e-07
-2.64248e-06
1.74846e-08
1.97903e-06
-1.46556e-07
1.25391e-06
-3.24419e-07
8.1791e-07
-4.42405e-07
5.01704e-07
-4.59872e-07
2.43034e-07
-4.18991e-07
7.51997e-08
-3.63971e-07
-6.1907e-08
-3.00339e-07
-1.24259e-07
-2.31624e-07
-1.72986e-07
-1.74885e-07
-1.72248e-07
-1.15317e-07
-1.59884e-07
-7.27738e-08
-1.60505e-07
-2.47571e-08
-1.06327e-07
1.72019e-08
-1.58126e-07
4.88186e-08
-4.9282e-08
8.87334e-08
-1.71257e-07
8.16464e-08
-4.23677e-08
2.84215e-08
-1.97772e-07
-1.21261e-09
-6.50186e-07
-2.64369e-06
-1.04789e-07
2.08382e-06
-3.19392e-07
1.46851e-06
-5.47967e-07
1.04648e-06
-6.44434e-07
5.98171e-07
-6.53048e-07
2.51648e-07
-5.60576e-07
-1.72727e-08
-4.30515e-07
-1.91968e-07
-3.29173e-07
-2.256e-07
-2.52949e-07
-2.49209e-07
-1.89255e-07
-2.35942e-07
-1.43688e-07
-2.05451e-07
-1.14289e-07
-1.89904e-07
-8.34964e-08
-1.3712e-07
-7.28656e-08
-1.68756e-07
-4.49503e-08
-7.71972e-08
-5.51753e-08
-1.61032e-07
-5.25917e-08
-4.49513e-08
-1.26334e-08
-2.3773e-07
6.2257e-09
-6.69045e-07
-2.63746e-06
-9.44831e-08
2.17831e-06
-2.90553e-07
1.66458e-06
-5.90338e-07
1.34627e-06
-7.82846e-07
7.90678e-07
-8.28194e-07
2.96997e-07
-7.17504e-07
-1.27963e-07
-4.83771e-07
-4.25701e-07
-3.04797e-07
-4.04574e-07
-2.00901e-07
-3.53106e-07
-1.38761e-07
-2.98082e-07
-7.16598e-08
-2.72552e-07
-4.59126e-08
-2.15651e-07
-1.08282e-09
-1.8195e-07
9.88629e-10
-1.70828e-07
4.65775e-08
-1.22786e-07
8.67372e-08
-2.01192e-07
7.7155e-08
-3.53691e-08
3.29465e-08
-1.93522e-07
-3.05125e-08
-6.05586e-07
-2.66798e-06
-2.19988e-07
2.39829e-06
-4.7092e-07
1.91552e-06
-6.88382e-07
1.56373e-06
-8.64131e-07
9.66427e-07
-9.25405e-07
3.5827e-07
-8.19891e-07
-2.33477e-07
-5.42643e-07
-7.02949e-07
-2.87156e-07
-6.60061e-07
-1.49772e-07
-4.9049e-07
-1.17339e-07
-3.30515e-07
-8.08824e-08
-3.09009e-07
-7.86661e-08
-2.17867e-07
-4.15327e-08
-2.19083e-07
-4.9263e-08
-1.63098e-07
1.34854e-08
-1.85534e-07
3.99304e-08
-2.27637e-07
3.51385e-09
1.04739e-09
1.27883e-08
-2.02796e-07
3.18497e-08
-6.24647e-07
-2.63613e-06
-5.22538e-08
2.45055e-06
-2.31074e-07
2.09434e-06
-3.48197e-07
1.68086e-06
-4.5706e-07
1.07529e-06
-5.70841e-07
4.72051e-07
-5.53038e-07
-2.51279e-07
-4.12906e-07
-8.43081e-07
-1.92446e-07
-8.80521e-07
2.59463e-08
-7.08883e-07
5.3329e-08
-3.57897e-07
6.39687e-08
-3.19648e-07
4.74746e-08
-2.01373e-07
2.23951e-08
-1.94004e-07
-2.20449e-08
-1.18658e-07
1.92336e-08
-2.26813e-07
-2.14402e-08
-1.86963e-07
4.2096e-08
-6.24888e-08
7.96406e-08
-2.40341e-07
-4.1355e-08
-5.03652e-07
-2.67748e-06
1.46078e-07
2.30447e-06
1.55749e-07
2.08466e-06
1.97821e-07
1.63878e-06
8.87204e-08
1.18439e-06
8.58497e-10
5.59913e-07
8.73933e-08
-3.37814e-07
1.22748e-07
-8.78436e-07
9.14458e-09
-7.66918e-07
-3.50762e-08
-6.64662e-07
-4.35629e-09
-3.88617e-07
1.75771e-08
-3.41582e-07
-2.47657e-08
-1.5903e-07
-6.97562e-08
-1.49013e-07
-1.70655e-07
-1.77588e-08
-2.83404e-08
-3.69128e-07
-6.53931e-08
-1.4991e-07
-1.66129e-08
-1.11269e-07
1.12854e-07
-3.69807e-07
4.74154e-08
-4.38214e-07
-2.63007e-06
2.56271e-07
2.0482e-06
5.68669e-07
1.77227e-06
6.77622e-07
1.52983e-06
7.37017e-07
1.125e-06
7.89722e-07
5.07208e-07
7.91601e-07
-3.39693e-07
9.10077e-07
-9.96912e-07
8.85336e-07
-7.42176e-07
6.33448e-07
-4.12774e-07
3.54385e-07
-1.09555e-07
2.7402e-07
-2.61216e-07
1.23614e-07
-8.62403e-09
1.65291e-07
-1.9069e-07
1.51853e-07
-4.32098e-09
6.02598e-08
-2.77534e-07
-7.94607e-09
-8.1704e-08
-2.46194e-08
-9.45957e-08
-4.28755e-08
-3.51551e-07
-5.2556e-08
-4.28533e-07
-2.68262e-06
7.86757e-07
1.26144e-06
1.12152e-06
1.4375e-06
1.30197e-06
1.34938e-06
1.38546e-06
1.0415e-06
1.43963e-06
4.53038e-07
1.30751e-06
-2.07573e-07
9.83043e-07
-6.72441e-07
9.33447e-07
-6.9258e-07
1.03584e-06
-5.15167e-07
1.05576e-06
-1.29478e-07
1.00103e-06
-2.06486e-07
9.68295e-07
2.41138e-08
8.18274e-07
-4.06683e-08
6.97738e-07
1.16215e-07
2.15948e-07
2.04256e-07
-2.06317e-07
3.40561e-07
-1.58856e-07
-1.42057e-07
-1.43507e-07
-3.66899e-07
3.78816e-08
-6.09922e-07
-2.64474e-06
8.02114e-07
4.59329e-07
1.40235e-06
8.37267e-07
1.78004e-06
9.71693e-07
1.92322e-06
8.9832e-07
1.79205e-06
5.84212e-07
1.49565e-06
8.88261e-08
8.45635e-07
-2.24304e-08
2.92668e-07
-1.39613e-07
-2.61081e-08
-1.96391e-07
-4.68488e-08
-1.08737e-07
-1.82583e-07
-7.07522e-08
-1.54776e-07
-3.69266e-09
-1.26245e-07
-6.91995e-08
-1.40093e-07
1.30062e-07
9.16805e-08
-2.75179e-08
1.75151e-07
2.5709e-07
2.48769e-07
-2.15674e-07
-7.08758e-08
-4.72551e-08
-6.6897e-08
-6.13901e-07
-2.71164e-06
6.40575e-07
-1.81247e-07
1.14117e-06
3.36673e-07
1.48149e-06
6.31371e-07
1.73967e-06
6.4014e-07
1.74289e-06
5.80997e-07
1.66496e-06
1.66754e-07
1.485e-06
1.5753e-07
1.32227e-06
2.31102e-08
1.04155e-06
8.4333e-08
7.76325e-07
1.56488e-07
6.20926e-07
8.46476e-08
4.14765e-07
2.02468e-07
3.58245e-07
-1.26788e-08
2.67924e-07
2.20383e-07
1.36603e-07
1.03803e-07
2.70842e-07
1.22852e-07
4.0763e-07
-3.52463e-07
1.50102e-07
2.10273e-07
1.02287e-07
-5.66085e-07
-2.60935e-06
2.42152e-07
-4.23398e-07
1.55584e-07
4.23241e-07
3.36381e-07
4.50574e-07
4.80606e-07
4.95915e-07
4.93383e-07
5.6822e-07
3.74927e-07
2.85211e-07
3.24176e-07
2.08282e-07
2.06108e-07
1.41177e-07
1.71729e-07
1.18713e-07
1.70436e-07
1.57781e-07
9.20581e-08
1.63026e-07
1.77322e-07
1.17204e-07
-1.67957e-09
1.66323e-07
1.43132e-08
2.0439e-07
7.69458e-09
1.10422e-07
-2.58991e-07
3.89537e-07
2.80404e-08
-6.39494e-07
1.82736e-07
5.55778e-08
2.19861e-08
-4.05336e-07
-2.58736e-06
-9.64691e-08
-3.26929e-07
2.16756e-07
1.10016e-07
3.41244e-07
3.26086e-07
5.01907e-07
3.35251e-07
7.19736e-07
3.50391e-07
7.58147e-07
2.468e-07
7.93334e-07
1.73094e-07
7.83802e-07
1.5071e-07
7.67288e-07
1.35227e-07
7.93246e-07
1.31823e-07
7.62852e-07
1.93419e-07
7.46376e-07
1.3368e-07
7.80487e-07
1.32212e-07
6.58545e-07
3.26332e-07
8.2146e-07
-5.24925e-08
8.26736e-07
3.84261e-07
5.40746e-07
-3.53504e-07
3.32872e-07
2.63452e-07
2.90624e-07
-3.63088e-07
-2.29674e-06
-6.94975e-07
3.68046e-07
-8.19951e-07
2.34992e-07
-7.33642e-07
2.39777e-07
-6.03025e-07
2.04634e-07
-4.76809e-07
2.24175e-07
-4.04195e-07
1.74185e-07
-4.07326e-07
1.76226e-07
-3.85439e-07
1.28823e-07
-3.86261e-07
1.36048e-07
-3.6386e-07
1.09422e-07
-2.83783e-07
1.13343e-07
-2.58233e-07
1.0813e-07
-1.89857e-07
6.38349e-08
-4.02929e-08
1.76768e-07
-2.13736e-07
1.20951e-07
9.03669e-08
8.01575e-08
-2.25767e-07
-3.737e-08
7.47021e-08
-3.70177e-08
7.38239e-07
-1.02662e-06
-1.5585e-06
3.68046e-07
6.03038e-07
8.42815e-07
1.04745e-06
1.27162e-06
1.44581e-06
1.62204e-06
1.75086e-06
1.88691e-06
1.99633e-06
2.10967e-06
2.2178e-06
2.28164e-06
2.4584e-06
2.57936e-06
2.65951e-06
2.62214e-06
2.58513e-06
1.5585e-06
)
;

boundaryField
{
    movingWall
    {
        type            calculated;
        value           uniform 0;
    }
    fixedWalls
    {
        type            calculated;
        value           uniform 0;
    }
    frontAndBack
    {
        type            empty;
        value           nonuniform 0();
    }
}


// ************************************************************************* //
