/*--------------------------------*- C++ -*----------------------------------*\
| =========                 |                                                 |
| \\      /  F ield         | OpenFOAM: The Open Source CFD Toolbox           |
|  \\    /   O peration     | Version:  5.x                                   |
|   \\  /    A nd           | Web:      www.OpenFOAM.org                      |
|    \\/     M anipulation  |                                                 |
\*---------------------------------------------------------------------------*/
FoamFile
{
    version     2.0;
    format      ascii;
    class       volScalarField;
    location    "17";
    object      p;
}
// * * * * * * * * * * * * * * * * * * * * * * * * * * * * * * * * * * * * * //

dimensions      [0 2 -2 0 0 0 0];

internalField   nonuniform List<scalar> 
400
(
4.52352e-11
-0.000779133
-0.0013265
-0.00164803
-0.00178018
-0.00184364
-0.00185579
-0.00187249
-0.00187927
-0.00189029
-0.00190134
-0.00191039
-0.00191502
-0.00191928
-0.0018882
-0.001779
-0.0015372
-0.0011646
-0.000793566
0.000625854
-0.00083633
-0.00135558
-0.00167759
-0.00182719
-0.00186707
-0.00188264
-0.00188069
-0.00188253
-0.00188261
-0.00189633
-0.00191179
-0.00193176
-0.00195818
-0.00194347
-0.00195256
-0.00187571
-0.00182707
-0.00165176
-0.00150499
-0.000501557
-0.00135722
-0.0017115
-0.00183954
-0.00190522
-0.0018933
-0.00188922
-0.00187682
-0.00187669
-0.00188467
-0.00189268
-0.0019096
-0.0019178
-0.00192947
-0.00191812
-0.00193038
-0.00183368
-0.00184203
-0.00170379
-0.00160305
-0.00114204
-0.00165101
-0.00186343
-0.00190333
-0.00191548
-0.00190208
-0.00189321
-0.00188957
-0.00189059
-0.001896
-0.00190392
-0.00191567
-0.00192187
-0.00194044
-0.00192107
-0.00193212
-0.00188619
-0.00188479
-0.00176297
-0.00176824
-0.0015486
-0.00177958
-0.0019037
-0.00189773
-0.00190725
-0.0018925
-0.00188981
-0.00188551
-0.00188679
-0.00189305
-0.00189619
-0.00190717
-0.00190732
-0.00191354
-0.00191934
-0.00194165
-0.00190998
-0.00192509
-0.00183108
-0.00181266
-0.00173551
-0.00182943
-0.00188549
-0.00188848
-0.00188638
-0.00188625
-0.00188501
-0.00189008
-0.00189464
-0.00190344
-0.00190722
-0.00191793
-0.00192267
-0.00191813
-0.00190836
-0.00194757
-0.00192251
-0.00194517
-0.00188441
-0.0018882
-0.00185478
-0.00184563
-0.0018699
-0.00188299
-0.00188121
-0.00188191
-0.00188452
-0.001889
-0.00189416
-0.00190069
-0.00189804
-0.00189692
-0.00190585
-0.00190166
-0.00193718
-0.00193696
-0.00193513
-0.00195152
-0.00192063
-0.00190848
-0.00191234
-0.00183046
-0.00184718
-0.00184651
-0.0018546
-0.00186458
-0.00187037
-0.00188784
-0.00189839
-0.00190609
-0.00190995
-0.00193549
-0.00194258
-0.00192905
-0.00193792
-0.00196601
-0.00195076
-0.00195847
-0.00195576
-0.0019471
-0.00198924
-0.00182104
-0.00182529
-0.00185666
-0.00185244
-0.00186994
-0.00187212
-0.00189798
-0.00191102
-0.00193573
-0.00193025
-0.0019513
-0.00191479
-0.00203888
-0.00201882
-0.00200606
-0.002001
-0.00204879
-0.00201751
-0.00200249
-0.00204389
-0.00180763
-0.00181298
-0.00181676
-0.00182988
-0.00184356
-0.00185397
-0.00188096
-0.00188603
-0.0019219
-0.00197374
-0.00198464
-0.00194211
-0.00204485
-0.00209733
-0.00201128
-0.001991
-0.00203052
-0.00205889
-0.00207983
-0.0020214
-0.00179269
-0.00178052
-0.00181245
-0.001815
-0.001839
-0.00184584
-0.00190735
-0.0019289
-0.00195977
-0.00201749
-0.00207991
-0.00210753
-0.00211526
-0.00199383
-0.00201514
-0.0019956
-0.00203985
-0.00198305
-0.00197027
-0.00186186
-0.00176805
-0.00177884
-0.00178093
-0.00179192
-0.00183635
-0.00184509
-0.00188849
-0.00193383
-0.00196198
-0.00204755
-0.00207234
-0.0021585
-0.0020543
-0.00191304
-0.00194531
-0.00187976
-0.00194406
-0.00182474
-0.00180557
-0.00180197
-0.0017488
-0.00175378
-0.00176925
-0.00177528
-0.00183241
-0.0018049
-0.00185247
-0.0018885
-0.00194038
-0.00205125
-0.00205664
-0.00213349
-0.00202447
-0.00196788
-0.00198568
-0.00194771
-0.00198355
-0.00186024
-0.0019006
-0.0018057
-0.00172055
-0.00172057
-0.00175617
-0.00173924
-0.00181929
-0.001802
-0.00181402
-0.00187025
-0.00190591
-0.00210885
-0.00211856
-0.00212997
-0.00206213
-0.00198542
-0.00194463
-0.00186297
-0.00194721
-0.00176139
-0.00183012
-0.00168928
-0.0016859
-0.00169256
-0.00175145
-0.00173376
-0.00179316
-0.00176563
-0.00178936
-0.00182958
-0.00188675
-0.00208813
-0.00210565
-0.0021095
-0.00202507
-0.00195505
-0.00199163
-0.00190566
-0.00196101
-0.00163943
-0.00174036
-0.00165087
-0.00163317
-0.00167061
-0.00170881
-0.00169367
-0.00177345
-0.00174615
-0.00176227
-0.00184507
-0.00179134
-0.00200408
-0.0020059
-0.00196528
-0.00193253
-0.00176335
-0.00188237
-0.00174713
-0.00184581
-0.00171173
-0.00168318
-0.00162262
-0.00153194
-0.00160546
-0.0017076
-0.00172052
-0.00172727
-0.00174388
-0.00175146
-0.00185778
-0.0019474
-0.00198477
-0.00197867
-0.00193581
-0.00182384
-0.00203752
-0.00195538
-0.00194674
-0.00192503
-0.0018193
-0.00186767
-0.00153067
-0.00136186
-0.0015385
-0.00162133
-0.00166175
-0.00171962
-0.00175722
-0.00173508
-0.00189317
-0.00192187
-0.0019801
-0.0019648
-0.00202126
-0.00205538
-0.00198361
-0.00175585
-0.00171471
-0.00181641
-0.00163222
-0.00144226
-0.00128769
-0.00109106
-0.00131942
-0.00151378
-0.00159364
-0.00163122
-0.00162343
-0.00163519
-0.00189206
-0.00203356
-0.00214524
-0.0021512
-0.00212171
-0.00217339
-0.00172015
-0.00165513
-0.00174356
-0.00180537
-0.00193853
-0.00183612
-0.000788984
-0.000799903
-0.00108302
-0.00135188
-0.00155562
-0.00167123
-0.00174816
-0.00179642
-0.00186931
-0.00196587
-0.00203423
-0.00204155
-0.00196234
-0.00178623
-0.0016587
-0.00165093
-0.00166963
-0.00169556
-0.00139861
-0.000702042
0.00128987
)
;

boundaryField
{
    movingWall
    {
        type            zeroGradient;
    }
    fixedWalls
    {
        type            zeroGradient;
    }
    frontAndBack
    {
        type            empty;
    }
}


// ************************************************************************* //
