/*--------------------------------*- C++ -*----------------------------------*\
| =========                 |                                                 |
| \\      /  F ield         | OpenFOAM: The Open Source CFD Toolbox           |
|  \\    /   O peration     | Version:  5.x                                   |
|   \\  /    A nd           | Web:      www.OpenFOAM.org                      |
|    \\/     M anipulation  |                                                 |
\*---------------------------------------------------------------------------*/
FoamFile
{
    version     2.0;
    format      ascii;
    class       surfaceScalarField;
    location    "17";
    object      phi;
}
// * * * * * * * * * * * * * * * * * * * * * * * * * * * * * * * * * * * * * //

dimensions      [0 3 -1 0 0 0 0];

internalField   nonuniform List<scalar> 
760
(
-1.35561e-06
1.35561e-06
-2.24866e-06
8.93051e-07
-2.64197e-06
3.9331e-07
-2.85239e-06
2.10427e-07
-2.89224e-06
3.98432e-08
-2.95317e-06
6.09302e-08
-2.94382e-06
-9.34688e-09
-3.00379e-06
5.99669e-08
-3.01028e-06
6.49044e-09
-3.07869e-06
6.84141e-08
-3.09837e-06
1.96819e-08
-3.14492e-06
4.65501e-08
-3.15113e-06
6.20516e-09
-3.14533e-06
-5.79782e-09
-3.11536e-06
-2.99706e-08
-3.01399e-06
-1.01373e-07
-2.85523e-06
-1.58759e-07
-2.38298e-06
-4.72254e-07
-1.56913e-06
-8.13842e-07
-1.56913e-06
-7.27937e-07
2.08354e-06
-1.1476e-06
1.31271e-06
-1.32447e-06
5.70186e-07
-1.35068e-06
2.36634e-07
-1.36324e-06
5.24068e-08
-1.35221e-06
4.98984e-08
-1.35639e-06
-5.16454e-09
-1.34091e-06
4.44858e-08
-1.35361e-06
1.91912e-08
-1.34334e-06
5.81434e-08
-1.37132e-06
4.76545e-08
-1.40154e-06
7.67697e-08
-1.43466e-06
3.93295e-08
-1.43305e-06
-7.40373e-09
-1.43671e-06
-2.63153e-08
-1.37499e-06
-1.63095e-07
-1.36252e-06
-1.71228e-07
-1.33281e-06
-5.01963e-07
-1.10696e-06
-1.03969e-06
-2.67609e-06
-3.24812e-07
2.40836e-06
-5.00818e-07
1.48872e-06
-4.78857e-07
5.48225e-07
-4.47832e-07
2.05608e-07
-4.49769e-07
5.4344e-08
-4.50036e-07
5.01656e-08
-4.9024e-07
3.50395e-08
-5.2042e-07
7.46659e-08
-5.71679e-07
7.04495e-08
-6.14021e-07
1.00486e-07
-6.51972e-07
8.56057e-08
-6.52946e-07
7.77438e-08
-6.32257e-07
1.86405e-08
-6.12632e-07
-2.70292e-08
-5.34887e-07
-1.0406e-07
-5.11195e-07
-1.86787e-07
-2.44632e-07
-4.37791e-07
-1.28864e-07
-6.17731e-07
-2.86585e-07
-8.81973e-07
-2.96268e-06
-1.42916e-07
2.55127e-06
-1.76285e-07
1.52209e-06
-1.10742e-07
4.82682e-07
-8.32974e-08
1.78164e-07
-1.13081e-07
8.41271e-08
-1.45575e-07
8.26595e-08
-1.98936e-07
8.84013e-08
-2.39883e-07
1.15612e-07
-2.82772e-07
1.13339e-07
-3.06189e-07
1.23903e-07
-2.95894e-07
7.53108e-08
-2.77057e-07
5.8907e-08
-2.32882e-07
-2.55348e-08
-2.70565e-07
1.06537e-08
-3.70171e-07
-4.4548e-09
-4.75719e-07
-8.12384e-08
-5.1122e-07
-4.02291e-07
-3.66257e-07
-7.62694e-07
-2.2945e-07
-1.01878e-06
-3.19213e-06
-1.04908e-08
2.56176e-06
8.29796e-09
1.5033e-06
4.47538e-08
4.46226e-07
6.43601e-08
1.58557e-07
2.38078e-08
1.24679e-07
-3.35936e-08
1.40061e-07
-7.94264e-08
1.34234e-07
-1.16799e-07
1.52985e-07
-1.38329e-07
1.34869e-07
-1.4378e-07
1.29354e-07
-1.49288e-07
8.08186e-08
-1.57824e-07
6.74433e-08
-1.19995e-07
-6.33637e-08
-2.25708e-07
1.16366e-07
-2.68139e-07
3.79765e-08
-2.5715e-07
-9.22273e-08
-1.88657e-07
-4.70783e-07
-8.80306e-08
-8.6332e-07
-2.92098e-08
-1.0776e-06
-3.22134e-06
-9.93776e-09
2.5717e-06
2.32476e-08
1.47011e-06
5.92146e-08
4.10259e-07
2.50921e-08
1.9268e-07
-2.86402e-08
1.78412e-07
-5.93922e-08
1.70813e-07
-9.04454e-08
1.65287e-07
-1.29843e-07
1.92382e-07
-1.50074e-07
1.551e-07
-1.31175e-07
1.10455e-07
-1.64073e-07
1.13717e-07
-2.32579e-07
1.35949e-07
-9.71817e-08
-1.98761e-07
-1.00181e-07
1.19365e-07
-7.61908e-08
1.39864e-08
-7.95984e-08
-8.88197e-08
-2.31748e-07
-3.18634e-07
-2.43099e-07
-8.5197e-07
-1.26146e-07
-1.19455e-06
-3.34748e-06
6.54158e-08
2.50628e-06
1.1643e-07
1.4191e-06
1.01514e-07
4.25176e-07
6.96537e-08
2.2454e-07
5.94456e-08
1.8862e-07
1.19964e-08
2.18262e-07
-4.38729e-08
2.21157e-07
-7.5762e-08
2.24271e-07
-8.57483e-08
1.65086e-07
-1.23274e-07
1.4798e-07
-1.05037e-07
9.54798e-08
-9.94725e-08
1.30385e-07
5.61723e-08
-3.54406e-07
-8.68341e-08
2.62372e-07
-6.83263e-08
-4.52145e-09
-1.84785e-08
-1.38667e-07
-7.04073e-08
-2.66705e-07
-5.72842e-08
-8.65093e-07
-8.36655e-09
-1.24347e-06
-3.35585e-06
3.72558e-08
2.46903e-06
6.48603e-08
1.39149e-06
9.7468e-08
3.92568e-07
6.25251e-08
2.59483e-07
2.53443e-08
2.25801e-07
7.29656e-10
2.42877e-07
-6.42402e-08
2.86126e-07
-5.82967e-08
2.18328e-07
-1.66575e-08
1.23447e-07
-1.93704e-07
3.25027e-07
-4.36769e-07
3.38545e-07
-2.99071e-07
-7.31279e-09
-4.726e-08
-6.06217e-07
-1.51686e-07
3.66797e-07
-2.62712e-07
1.06505e-07
-2.17153e-07
-1.84226e-07
-2.00413e-07
-2.83445e-07
-2.30321e-07
-8.35186e-07
-6.09605e-08
-1.41283e-06
-3.41681e-06
6.41484e-08
2.40488e-06
9.84898e-08
1.35715e-06
5.88412e-08
4.32217e-07
3.46032e-08
2.83721e-07
3.28068e-08
2.27597e-07
9.41903e-08
1.81493e-07
1.49193e-07
2.31124e-07
1.84193e-07
1.83328e-07
1.05604e-07
2.02036e-07
-4.55319e-08
4.76163e-07
-2.29873e-07
5.22886e-07
-1.16444e-07
-1.20742e-07
8.48564e-08
-8.07517e-07
-7.49289e-08
5.26583e-07
-1.19375e-07
1.50952e-07
-8.27317e-08
-2.2087e-07
-1.92023e-07
-1.74153e-07
-1.04061e-07
-9.23148e-07
2.6219e-08
-1.54311e-06
-3.39059e-06
5.41207e-08
2.35076e-06
1.01783e-07
1.30949e-06
1.36304e-07
3.97695e-07
1.66185e-07
2.53839e-07
9.72755e-08
2.96507e-07
1.09854e-07
1.68915e-07
1.30729e-07
2.10249e-07
-8.51962e-08
3.99253e-07
-4.35779e-07
5.52619e-07
-5.83087e-07
6.23471e-07
-4.79401e-07
4.192e-07
-3.43992e-07
-2.56152e-07
-2.93175e-07
-8.58334e-07
-3.01647e-07
5.35055e-07
-9.61917e-08
-5.45042e-08
2.39592e-08
-3.41021e-07
8.05322e-08
-2.30726e-07
3.93161e-08
-8.81932e-07
-6.22327e-08
-1.44156e-06
-3.45282e-06
4.3754e-08
2.30701e-06
5.85802e-08
1.29466e-06
9.30258e-08
3.6325e-07
9.1508e-08
2.55357e-07
1.06918e-08
3.77323e-07
3.28839e-08
1.46723e-07
3.82026e-08
2.04931e-07
-5.25526e-08
4.90008e-07
-1.88507e-07
6.88573e-07
-3.21511e-07
7.56475e-07
-3.60805e-07
4.58494e-07
-4.45436e-07
-1.71521e-07
-3.45051e-07
-9.58719e-07
5.18947e-10
1.89485e-07
2.85239e-07
-3.39225e-07
4.59458e-07
-5.1524e-07
3.82537e-07
-1.53805e-07
3.37198e-07
-8.36594e-07
1.00135e-07
-1.2045e-06
-3.35269e-06
5.44845e-08
2.25252e-06
9.34802e-08
1.25567e-06
-1.96309e-08
4.76361e-07
-1.93249e-07
4.28975e-07
-3.13246e-07
4.9732e-07
-3.24845e-07
1.58322e-07
-3.43731e-07
2.23817e-07
-2.30902e-07
3.77179e-07
-1.61396e-07
6.19067e-07
-9.82275e-08
6.93306e-07
2.9441e-08
3.30826e-07
-1.62951e-07
2.08712e-08
-3.63007e-07
-7.58663e-07
-1.28914e-07
-4.46069e-08
9.684e-08
-5.64979e-07
7.1955e-08
-4.90355e-07
1.81408e-07
-2.63258e-07
2.53201e-07
-9.08386e-07
9.35435e-08
-1.04484e-06
-3.25914e-06
5.32059e-08
2.19932e-06
8.72144e-08
1.22166e-06
-3.22407e-08
5.95816e-07
-1.15118e-07
5.11853e-07
-7.81144e-08
4.60316e-07
-1.78591e-07
2.58798e-07
-3.74402e-07
4.19628e-07
-3.91386e-07
3.94163e-07
-2.79392e-07
5.07073e-07
-1.12021e-07
5.25935e-07
1.64117e-08
2.02393e-07
8.69214e-08
-4.96386e-08
-1.18411e-07
-5.53331e-07
5.27403e-08
-2.15759e-07
6.08927e-08
-5.73132e-07
-2.9245e-07
-1.37012e-07
-7.55381e-08
-4.8017e-07
-8.19749e-08
-9.0195e-07
-8.09863e-08
-1.04583e-06
-3.34013e-06
2.71313e-08
2.17218e-06
9.60354e-08
1.15276e-06
1.02285e-07
5.89566e-07
1.61648e-07
4.5249e-07
1.42309e-07
4.79654e-07
2.60231e-07
1.40877e-07
2.35832e-07
4.44026e-07
1.41044e-07
4.88951e-07
1.21576e-07
5.26541e-07
1.88675e-07
4.58837e-07
3.10913e-07
8.01552e-08
3.56638e-07
-9.53644e-08
1.66307e-07
-3.62999e-07
3.16604e-07
-3.66056e-07
3.82363e-07
-6.3889e-07
3.22089e-07
-7.67383e-08
4.98489e-07
-6.5657e-07
3.62079e-07
-7.6554e-07
1.35254e-07
-8.19005e-07
-3.20488e-06
6.37084e-08
2.10848e-06
3.45316e-08
1.18193e-06
5.70241e-08
5.67074e-07
3.25378e-07
1.84137e-07
3.93095e-07
4.11937e-07
4.90337e-07
4.36346e-08
6.12252e-07
3.22111e-07
8.20982e-07
2.80221e-07
1.03836e-06
3.09166e-07
9.62499e-07
5.34694e-07
1.1565e-06
-1.13849e-07
9.9966e-07
6.14789e-08
1.02971e-06
-3.93053e-07
1.1864e-06
-5.22739e-07
1.02261e-06
-4.75101e-07
1.18571e-06
-2.39845e-07
7.11311e-07
-1.82166e-07
1.25985e-07
-1.80215e-07
7.02697e-09
-7.00047e-07
-3.19785e-06
8.1597e-08
2.02688e-06
1.53885e-07
1.10964e-06
1.55735e-07
5.65223e-07
-1.87533e-08
3.58625e-07
2.56999e-07
1.36185e-07
2.98442e-07
2.19221e-09
4.84754e-07
1.35799e-07
1.0192e-06
-2.54222e-07
1.30966e-06
1.87029e-08
1.41498e-06
4.29376e-07
1.36802e-06
-6.68871e-08
1.35717e-06
7.23241e-08
1.02056e-06
-5.64433e-08
7.97148e-07
-2.99325e-07
4.53313e-07
-1.31266e-07
-1.56716e-07
3.70184e-07
-3.24597e-07
-1.42844e-08
-6.96445e-08
-4.35167e-07
2.04168e-08
-7.90108e-07
-3.17743e-06
1.42986e-07
1.88389e-06
9.99837e-08
1.15265e-06
2.20185e-07
4.45022e-07
2.79469e-07
2.99341e-07
3.05795e-07
1.09859e-07
3.95639e-07
-8.7651e-08
7.58337e-07
-2.26899e-07
9.36957e-07
-4.32842e-07
1.01293e-06
-5.72714e-08
1.28255e-06
1.59752e-07
1.06589e-06
1.49773e-07
1.00589e-06
1.32332e-07
4.13065e-07
5.36379e-07
-2.27587e-07
3.41327e-07
-9.78374e-08
-2.61016e-07
-7.65713e-08
3.48918e-07
5.69039e-07
-6.59895e-07
4.07648e-07
-2.73776e-07
6.86057e-08
-4.51066e-07
-3.10883e-06
3.55461e-07
1.52843e-06
5.79043e-07
9.29064e-07
4.89015e-07
5.3505e-07
6.30554e-07
1.57802e-07
7.46822e-07
-6.40839e-09
8.06729e-07
-1.47558e-07
8.8798e-07
-3.08151e-07
7.8113e-07
-3.25992e-07
7.74118e-07
-5.02597e-08
9.78147e-07
-4.42766e-08
1.06867e-06
5.92513e-08
1.20265e-06
-1.64704e-09
1.49629e-06
2.42741e-07
1.22531e-06
6.12299e-07
9.72009e-07
-7.7116e-09
9.78611e-07
3.42316e-07
6.87246e-07
-3.6853e-07
1.85337e-08
3.94937e-07
3.06544e-07
-7.39077e-07
-2.80228e-06
4.40493e-07
1.08794e-06
7.53477e-07
6.1608e-07
9.29951e-07
3.58577e-07
8.28784e-07
2.58968e-07
6.22672e-07
1.99704e-07
3.60886e-07
1.14228e-07
-1.26453e-07
1.79188e-07
-5.83221e-07
1.30776e-07
-7.5052e-07
1.1704e-07
-8.73328e-07
7.85315e-08
-8.32335e-07
1.8258e-08
-8.10327e-07
-2.36551e-08
-5.69601e-07
2.0147e-09
-6.13231e-08
1.04022e-07
-1.34111e-07
6.50764e-08
8.93682e-08
1.18837e-07
-2.3823e-07
-4.09319e-08
2.43077e-07
-8.63701e-08
7.71182e-07
-1.26718e-06
-2.0311e-06
1.08794e-06
1.70402e-06
2.0626e-06
2.32156e-06
2.52127e-06
2.6355e-06
2.81468e-06
2.94546e-06
3.0625e-06
3.14103e-06
3.15929e-06
3.13563e-06
3.13765e-06
3.24167e-06
3.30675e-06
3.42558e-06
3.38465e-06
3.29828e-06
2.0311e-06
)
;

boundaryField
{
    movingWall
    {
        type            calculated;
        value           uniform 0;
    }
    fixedWalls
    {
        type            calculated;
        value           uniform 0;
    }
    frontAndBack
    {
        type            empty;
        value           nonuniform 0();
    }
}


// ************************************************************************* //
