/*--------------------------------*- C++ -*----------------------------------*\
| =========                 |                                                 |
| \\      /  F ield         | OpenFOAM: The Open Source CFD Toolbox           |
|  \\    /   O peration     | Version:  5.x                                   |
|   \\  /    A nd           | Web:      www.OpenFOAM.org                      |
|    \\/     M anipulation  |                                                 |
\*---------------------------------------------------------------------------*/
FoamFile
{
    version     2.0;
    format      ascii;
    class       volVectorField;
    location    "17";
    object      U;
}
// * * * * * * * * * * * * * * * * * * * * * * * * * * * * * * * * * * * * * //

dimensions      [0 1 -1 0 0 0 0];

internalField   nonuniform List<vector> 
400
(
(-0.0190142 0.00895306 0)
(-0.0404129 0.00744404 0)
(-0.05025 0.00244746 0)
(-0.0546379 0.00155876 0)
(-0.0568473 -0.000352455 0)
(-0.0582468 0.000402883 0)
(-0.0581192 -0.000821409 0)
(-0.0599865 0.000159925 0)
(-0.0593878 -0.000812083 0)
(-0.0615787 0.000144989 0)
(-0.0609148 -0.000697828 0)
(-0.0635309 -0.000323645 0)
(-0.0619226 -0.00136954 0)
(-0.0652653 -0.00148666 0)
(-0.0622715 -0.00221065 0)
(-0.0640499 -0.00297938 0)
(-0.0575451 -0.00404287 0)
(-0.0540551 -0.00806264 0)
(-0.0483099 -0.0124301 0)
(-0.00565705 -0.02176 0)
(-0.0104358 0.0397138 0)
(-0.0218916 0.0245117 0)
(-0.0236008 0.011226 0)
(-0.0281305 0.00577253 0)
(-0.0244524 0.00160642 0)
(-0.029784 0.00174289 0)
(-0.0234899 0.000343133 0)
(-0.0312034 0.00206795 0)
(-0.0219982 0.00105286 0)
(-0.032012 0.00246005 0)
(-0.0221122 0.00139181 0)
(-0.0320518 0.00196228 0)
(-0.0252403 0.00149234 0)
(-0.0308493 0.00116775 0)
(-0.0281745 0.000718551 0)
(-0.0276012 -0.00175762 0)
(-0.0293493 -0.00364269 0)
(-0.0236345 -0.0137855 0)
(-0.0344989 -0.024772 0)
(-0.00336693 -0.0481375 0)
(-0.00564323 0.0452531 0)
(-0.00927884 0.0286055 0)
(-0.00950781 0.0126044 0)
(-0.0100071 0.00410544 0)
(-0.00705192 0.000704961 0)
(-0.0112813 0.000424002 0)
(-0.00638064 -0.000476782 0)
(-0.0130196 -0.000115483 0)
(-0.00812048 -0.00022796 0)
(-0.014392 2.47388e-05 0)
(-0.0106349 0.000637826 0)
(-0.0150245 0.00137696 0)
(-0.0116948 0.000383367 0)
(-0.012797 -0.00136757 0)
(-0.0129887 -0.00154279 0)
(-0.00690116 -0.00390281 0)
(-0.0151471 -0.00220271 0)
(0.00630549 -0.00417502 0)
(-0.012465 -0.013063 0)
(0.00316775 -0.055212 0)
(-0.00202713 0.0528925 0)
(-0.0047285 0.0325788 0)
(-0.00162711 0.00991788 0)
(-0.00277995 0.00457676 0)
(-0.000343596 0.00147682 0)
(-0.00413932 0.00155408 0)
(-0.0017059 0.0017317 0)
(-0.00618206 0.00286985 0)
(-0.00352384 0.00286875 0)
(-0.0076451 0.00373897 0)
(-0.00485418 0.00260097 0)
(-0.00663163 0.00150585 0)
(-0.00497921 0.000182061 0)
(-0.00378034 0.000154332 0)
(-0.00772577 -0.00282463 0)
(-0.00622111 -0.0042425 0)
(-0.0140514 -0.015484 0)
(-0.00481915 -0.0201863 0)
(-0.0114183 -0.0239569 0)
(0.00366305 -0.0620764 0)
(-0.000741885 0.0511222 0)
(9.03212e-05 0.0295356 0)
(0.000400808 0.010171 0)
(0.00119849 0.00265677 0)
(0.00159176 0.00208019 0)
(-0.000720031 0.00184442 0)
(-0.000561207 0.00200945 0)
(-0.0025667 0.00201235 0)
(-0.00224838 0.00191049 0)
(-0.00310055 0.00152082 0)
(-0.00288582 0.000634355 0)
(-0.0028555 0.00108798 0)
(-0.00362307 -0.00102299 0)
(-0.000964425 0.00028552 0)
(-0.008634 0.00261853 0)
(-0.00134266 0.00117586 0)
(-0.00984825 -0.000924839 0)
(0.0031383 -0.0108932 0)
(-0.00714016 -0.0150992 0)
(0.00624448 -0.0623559 0)
(4.81079e-05 0.0527353 0)
(-0.000592814 0.0319193 0)
(0.00167105 0.00759729 0)
(0.000804394 0.00398108 0)
(0.000151673 0.00281823 0)
(-0.00122965 0.00385869 0)
(-0.00123892 0.00316918 0)
(-0.00227955 0.00386274 0)
(-0.00307051 0.00322124 0)
(-0.00273988 0.00333735 0)
(-0.00269061 0.00231135 0)
(-0.00391041 0.00131995 0)
(-0.00522581 -0.00176073 0)
(0.00166131 0.00469775 0)
(-0.0061483 -0.00120583 0)
(0.0035195 -0.00486199 0)
(-0.00716503 -0.018019 0)
(-0.00127008 -0.0235569 0)
(-0.00917096 -0.0292527 0)
(0.00455991 -0.0669269 0)
(0.000378917 0.0508754 0)
(0.00202269 0.0262557 0)
(0.00266367 0.00838402 0)
(0.00155622 0.00334973 0)
(0.00127021 0.00411704 0)
(0.00108538 0.00272681 0)
(-0.000622739 0.00358609 0)
(-0.00109812 0.00405554 0)
(-0.00205764 0.0032415 0)
(-0.00124068 0.00138312 0)
(-0.00354058 0.00269097 0)
(-0.000895795 0.00460723 0)
(-0.00274276 -0.005695 0)
(0.00470436 -0.00032596 0)
(-0.00794438 0.00189044 0)
(0.00539559 0.00140766 0)
(-0.00629258 0.00539303 0)
(0.00378327 -0.0102668 0)
(-0.00619126 -0.0172823 0)
(0.0058203 -0.064735 0)
(9.00904e-05 0.0501602 0)
(0.00124839 0.0311745 0)
(0.00150617 0.00940025 0)
(0.00233689 0.00608551 0)
(8.23213e-05 0.00378789 0)
(0.00102057 0.00636705 0)
(-0.00100237 0.00540721 0)
(-0.0014743 0.0048882 0)
(-0.000915863 0.00348577 0)
(0.000340169 0.00432051 0)
(-0.00844738 0.000720953 0)
(-0.00946144 2.05788e-05 0)
(-0.00188668 -0.00800132 0)
(-9.97894e-05 0.0115819 0)
(-0.00641219 -0.00212277 0)
(-0.00350097 -0.00666192 0)
(-0.00558031 -0.0154079 0)
(-0.00221318 -0.0239268 0)
(-0.00668542 -0.0329232 0)
(0.0039137 -0.0696926 0)
(0.00122341 0.0484544 0)
(0.00151265 0.0239661 0)
(0.0020785 0.00544138 0)
(0.000528261 0.00380324 0)
(0.000699424 0.00475105 0)
(0.000769957 0.00291324 0)
(0.00273969 0.00560432 0)
(0.00347702 0.00341581 0)
(0.00353066 0.00106564 0)
(0.00100079 0.00904419 0)
(-0.00311177 0.0134448 0)
(-0.00507364 -0.000204882 0)
(-0.00043629 -0.0176893 0)
(0.00433239 0.00228074 0)
(-0.0072153 0.00606658 0)
(0.00275344 -0.0013001 0)
(-0.00653087 0.00305928 0)
(-0.00055739 -0.00947785 0)
(-0.00329713 -0.0227157 0)
(0.00412246 -0.067474 0)
(-0.00078467 0.0478409 0)
(0.00286541 0.0302333 0)
(0.00136184 0.0127075 0)
(0.00391388 0.00795734 0)
(0.00265649 0.00486097 0)
(0.00145346 0.00467443 0)
(0.00263664 0.00420768 0)
(0.00295821 0.00453412 0)
(-0.00653325 0.00762797 0)
(-0.0115844 0.00951218 0)
(-0.0117306 0.00758151 0)
(-0.00607133 -0.00423532 0)
(-0.00883705 -0.0130125 0)
(-0.00360057 0.0174718 0)
(-0.00738113 0.000318517 0)
(0.00364898 -0.00695654 0)
(-0.00284368 -0.0093778 0)
(0.00619115 -0.0287822 0)
(-0.00480318 -0.0415947 0)
(0.00273376 -0.0707612 0)
(0.00118116 0.0464389 0)
(0.000787075 0.023209 0)
(0.00126909 0.00248676 0)
(0.00275177 0.0018883 0)
(0.000621904 0.00656386 0)
(-9.14428e-05 0.00210773 0)
(0.00118105 0.0035689 0)
(0.000515149 0.0105279 0)
(-0.00262771 0.0134974 0)
(-0.0049795 0.0149207 0)
(-0.00838831 0.00799924 0)
(-0.00571821 -0.00713856 0)
(-0.0130815 -0.0231781 0)
(0.000648442 0.00533992 0)
(-0.000719461 -0.00276627 0)
(0.0129523 -0.00762886 0)
(0.00415293 -0.000639939 0)
(0.0121883 -0.00718221 0)
(0.000389471 -0.0156896 0)
(0.00424164 -0.0640015 0)
(-0.00170914 0.045768 0)
(0.00373406 0.0273371 0)
(0.000202565 0.0126352 0)
(-0.000881987 0.00859776 0)
(-0.00738901 0.00880519 0)
(-0.00442636 0.00334435 0)
(-0.00909801 0.00504668 0)
(-0.0049771 0.00923199 0)
(-0.00373965 0.0145485 0)
(-0.00334396 0.0158442 0)
(-7.82973e-05 0.0113302 0)
(0.000872612 0.000646832 0)
(-0.0066918 -0.0133836 0)
(-0.00656582 0.00288321 0)
(0.000564126 -0.00970053 0)
(0.00398329 -0.011253 0)
(-0.00181787 -0.00465263 0)
(0.010125 -0.024069 0)
(-0.000664911 -0.0296284 0)
(0.00441301 -0.0681245 0)
(0.00140557 0.0440195 0)
(0.000801904 0.0237337 0)
(0.00250379 0.00603423 0)
(-0.00359188 0.00817167 0)
(-0.00156936 0.010725 0)
(-0.00106607 0.00349767 0)
(-0.00662492 0.0038416 0)
(-0.0078774 0.00658966 0)
(-0.00763365 0.0101508 0)
(-0.00452326 0.0127278 0)
(0.000698883 0.00255558 0)
(-0.000328184 0.000388004 0)
(0.00444727 -0.01636 0)
(-0.00889812 -0.00507807 0)
(0.0106451 -0.0143546 0)
(-0.00782642 -0.0101498 0)
(-0.00500953 -0.00690503 0)
(0.00268266 -0.0146492 0)
(-0.00664881 -0.0151013 0)
(0.00401108 -0.0654452 0)
(-0.00195766 0.0442398 0)
(0.00318051 0.0249309 0)
(0.000258785 0.0177135 0)
(0.00438122 0.0129776 0)
(0.00128348 0.00761557 0)
(0.00503133 0.00625814 0)
(0.00517074 0.0132264 0)
(0.00376702 0.00849962 0)
(0.00260668 0.00994539 0)
(0.00130876 0.00711996 0)
(0.00712926 0.00479726 0)
(0.0045001 -0.00256967 0)
(0.0105208 -0.00701243 0)
(-0.00348286 -0.00383669 0)
(0.0154825 -0.0071834 0)
(0.00101714 0.00554325 0)
(0.0102358 -0.0114163 0)
(0.0119579 -0.0201775 0)
(0.000720317 -0.0258647 0)
(0.00565192 -0.0652297 0)
(0.00189339 0.0416305 0)
(0.000893384 0.0209061 0)
(0.000197484 0.00512167 0)
(0.0024996 0.00438397 0)
(0.00948114 0.0120417 0)
(0.00729879 -0.00025604 0)
(0.0116337 0.00414914 0)
(0.0134194 0.012004 0)
(0.0205079 0.0103313 0)
(0.0184082 0.011733 0)
(0.022034 -0.00171477 0)
(0.0226916 -0.00169014 0)
(0.0187614 -0.00711653 0)
(0.0238872 -0.0116641 0)
(0.0212276 -0.0200998 0)
(0.0219662 -0.00930496 0)
(0.0219685 -0.0164331 0)
(0.00985039 -0.00869727 0)
(-0.00606286 -0.00579146 0)
(0.00654552 -0.0648699 0)
(-0.00181645 0.041828 0)
(0.00484238 0.0253589 0)
(0.000905116 0.0185195 0)
(0.00600359 0.00358819 0)
(-0.00703373 0.0038716 0)
(0.0182037 0.002076 0)
(-0.00627059 0.00916668 0)
(0.024247 -0.00140835 0)
(0.0193378 0.00346287 0)
(0.0295815 0.0108162 0)
(0.029218 -0.00221116 0)
(0.0251412 0.00469654 0)
(0.0274357 -0.00866032 0)
(0.0163246 -0.00669215 0)
(0.0125944 0.00284993 0)
(0.00765054 0.00134031 0)
(-0.0151086 0.0102544 0)
(0.00354511 0.000753499 0)
(-0.00674073 -0.0204854 0)
(0.00775051 -0.0650704 0)
(0.00236951 0.0384067 0)
(0.00300559 0.0200254 0)
(0.000501364 0.00287948 0)
(0.00893064 0.00971351 0)
(0.00219293 0.00200193 0)
(0.0099687 -0.00200004 0)
(0.00677236 -0.00398029 0)
(0.0222608 -0.00833116 0)
(0.0144492 -0.00316907 0)
(0.0257249 0.00569032 0)
(0.0252779 -0.000765939 0)
(0.0166753 -0.00163522 0)
(0.0264273 0.00706218 0)
(-0.0121622 -0.00747221 0)
(0.00439611 -0.00918323 0)
(-0.00872787 0.0110477 0)
(0.00533541 -0.0111573 0)
(0.019059 -0.0198439 0)
(-0.00485779 -0.0148028 0)
(0.00859685 -0.063782 0)
(0.000418544 0.0359571 0)
(0.0124149 0.0241772 0)
(0.0115492 0.0157129 0)
(0.00878533 0.0029268 0)
(0.0156486 0.00187491 0)
(0.0143925 -0.0020442 0)
(0.0197968 -0.0056927 0)
(0.0133987 -0.00971188 0)
(0.0194486 0.0014442 0)
(0.0102079 0.00139301 0)
(0.0306531 0.00748692 0)
(0.010491 0.00638305 0)
(0.0368285 0.0121516 0)
(0.0228756 0.0220525 0)
(0.0290399 0.000154761 0)
(0.00880131 0.00510665 0)
(0.0274534 -0.0132932 0)
(0.00200503 0.0109692 0)
(-0.00114033 0.000346236 0)
(0.0142682 -0.0625082 0)
(0.00417039 0.0267416 0)
(0.0119377 0.0145929 0)
(0.017028 0.00502018 0)
(0.0213971 0.00373849 0)
(0.0113467 -0.00196958 0)
(0.0145139 -0.00276514 0)
(0.00116349 -0.00518331 0)
(-0.00717829 -0.00337135 0)
(-0.0151487 -0.00400852 0)
(-0.0158321 -0.00379766 0)
(-0.0185281 -0.00586824 0)
(-0.0136313 -0.00658629 0)
(-0.0218557 -0.00383342 0)
(0.00226779 0.00472162 0)
(-0.0052396 -0.000498913 0)
(-0.000834393 0.00700769 0)
(0.00484135 -0.00260946 0)
(-0.0155908 0.00158397 0)
(0.0234669 -0.0357898 0)
(0.012913 -0.0581905 0)
(0.00904491 0.0193631 0)
(0.0319859 0.0118175 0)
(0.0346166 0.0105738 0)
(0.0472653 0.00652565 0)
(0.0471645 0.00913766 0)
(0.0536475 0.00639594 0)
(0.0536855 0.0111274 0)
(0.0580126 0.0089542 0)
(0.0581179 0.00945025 0)
(0.0628613 0.00771465 0)
(0.0616222 0.00698044 0)
(0.0659514 0.00608471 0)
(0.0623826 0.00436003 0)
(0.0651678 -0.00111302 0)
(0.062351 0.00274357 0)
(0.0678127 -0.0016074 0)
(0.064565 0.00138395 0)
(0.0688982 -0.00348869 0)
(0.0553984 -0.00669619 0)
(0.0373731 -0.0108842 0)
)
;

boundaryField
{
    movingWall
    {
        type            fixedValue;
        value           uniform (1 0 0);
    }
    fixedWalls
    {
        type            noSlip;
    }
    frontAndBack
    {
        type            empty;
    }
}


// ************************************************************************* //
