/*--------------------------------*- C++ -*----------------------------------*\
| =========                 |                                                 |
| \\      /  F ield         | OpenFOAM: The Open Source CFD Toolbox           |
|  \\    /   O peration     | Version:  5.x                                   |
|   \\  /    A nd           | Web:      www.OpenFOAM.org                      |
|    \\/     M anipulation  |                                                 |
\*---------------------------------------------------------------------------*/
FoamFile
{
    version     2.0;
    format      ascii;
    class       volScalarField;
    location    "2.5";
    object      p;
}
// * * * * * * * * * * * * * * * * * * * * * * * * * * * * * * * * * * * * * //

dimensions      [0 2 -2 0 0 0 0];

internalField   nonuniform List<scalar> 
400
(
-1.67087e-10
3.48282e-07
1.09181e-06
2.24212e-06
3.8276e-06
5.88277e-06
8.44551e-06
1.1553e-05
1.52363e-05
1.95135e-05
2.43806e-05
2.98014e-05
3.5696e-05
4.19321e-05
4.82962e-05
5.45029e-05
6.01975e-05
6.49785e-05
6.8448e-05
7.0237e-05
-3.94133e-07
-5.56643e-08
6.69157e-07
1.79302e-06
3.34648e-06
5.367e-06
7.89647e-06
1.09773e-05
1.46471e-05
1.89322e-05
2.3838e-05
2.93383e-05
3.53618e-05
4.17914e-05
4.84166e-05
5.49427e-05
6.09897e-05
6.61186e-05
6.98788e-05
7.18348e-05
-1.21155e-06
-8.9367e-07
-2.07247e-07
8.62193e-07
2.34956e-06
4.2983e-06
6.75824e-06
9.78223e-06
1.34214e-05
1.77185e-05
2.2699e-05
2.83587e-05
3.4648e-05
4.14685e-05
4.86228e-05
5.58099e-05
6.26094e-05
6.84975e-05
7.29042e-05
7.5244e-05
-2.42874e-06
-2.14337e-06
-1.51771e-06
-5.3481e-07
8.46467e-07
2.678e-06
5.02108e-06
7.94364e-06
1.15164e-05
1.58074e-05
2.08728e-05
2.67452e-05
3.3414e-05
4.08049e-05
4.87658e-05
5.69942e-05
6.5018e-05
7.21805e-05
7.77089e-05
8.07562e-05
-4.01698e-06
-3.77811e-06
-3.23981e-06
-2.38229e-06
-1.15654e-06
4.99652e-07
2.66173e-06
5.4167e-06
8.86069e-06
1.30947e-05
1.82178e-05
2.43148e-05
3.14412e-05
3.95556e-05
4.86007e-05
5.82936e-05
6.81236e-05
7.72686e-05
8.4624e-05
8.8942e-05
-5.93477e-06
-5.75908e-06
-5.34003e-06
-4.65478e-06
-3.64523e-06
-2.23777e-06
-3.41412e-07
2.15224e-06
5.36884e-06
9.44976e-06
1.45476e-05
2.08169e-05
2.83943e-05
3.73501e-05
4.77263e-05
5.93368e-05
7.16893e-05
8.38146e-05
9.40881e-05
0.000100743
-8.12493e-06
-8.03246e-06
-7.77074e-06
-7.31389e-06
-6.59379e-06
-5.52556e-06
-4.003e-06
-1.89645e-06
9.50288e-07
4.72257e-06
9.63557e-06
1.59299e-05
2.38563e-05
3.36549e-05
4.55124e-05
5.94731e-05
7.5187e-05
9.16703e-05
0.000106596
0.00011772
-1.05113e-05
-1.05265e-05
-1.04672e-05
-1.03048e-05
-9.9601e-06
-9.33865e-06
-8.32168e-06
-6.76174e-06
-4.47544e-06
-1.23518e-06
3.23934e-06
9.28879e-06
1.7317e-05
2.7797e-05
4.10354e-05
5.76113e-05
7.75358e-05
0.000100144
0.000122447
0.000142409
-1.29943e-05
-1.31485e-05
-1.33446e-05
-1.35528e-05
-1.3681e-05
-1.36285e-05
-1.32695e-05
-1.24468e-05
-1.09592e-05
-8.54701e-06
-4.87521e-06
4.8784e-07
8.09397e-06
1.86262e-05
3.28277e-05
5.19072e-05
7.66302e-05
0.000107318
0.000140812
0.000178672
-1.54469e-05
-1.57816e-05
-1.62953e-05
-1.69613e-05
-1.76688e-05
-1.83162e-05
-1.87806e-05
-1.89079e-05
-1.84952e-05
-1.72706e-05
-1.48683e-05
-1.07931e-05
-4.36438e-06
5.37265e-06
1.98021e-05
4.01918e-05
6.90147e-05
0.000108732
0.000157601
0.000230944
-1.76934e-05
-1.82912e-05
-1.9189e-05
-2.04197e-05
-2.18126e-05
-2.32901e-05
-2.47416e-05
-2.60367e-05
-2.69944e-05
-2.73612e-05
-2.67863e-05
-2.47831e-05
-2.0659e-05
-1.33881e-05
-1.43857e-06
1.73538e-05
4.67141e-05
9.42231e-05
0.000155306
0.000291688
-1.95677e-05
-2.04808e-05
-2.18501e-05
-2.37507e-05
-2.59515e-05
-2.83835e-05
-3.09738e-05
-3.3639e-05
-3.62485e-05
-3.85979e-05
-4.03983e-05
-4.12515e-05
-4.05941e-05
-3.75684e-05
-3.08094e-05
-1.82009e-05
5.82083e-06
5.10799e-05
7.88818e-05
0.00029855
-2.06279e-05
-2.2629e-05
-2.42145e-05
-2.73553e-05
-3.01856e-05
-3.359e-05
-3.73255e-05
-4.148e-05
-4.59682e-05
-5.06596e-05
-5.53903e-05
-5.99805e-05
-6.41935e-05
-6.77485e-05
-7.02586e-05
-7.24454e-05
-7.72496e-05
-4.88411e-05
-0.000167683
0.000121291
-2.08893e-05
-2.25499e-05
-2.53534e-05
-2.83283e-05
-3.25231e-05
-3.72087e-05
-4.27115e-05
-4.88251e-05
-5.55155e-05
-6.27715e-05
-7.06222e-05
-7.91462e-05
-8.85395e-05
-9.91784e-05
-0.000111871
-0.000128272
-0.000174394
-0.000132944
-0.00041597
-0.000116215
-1.82334e-05
-2.537e-05
-2.78427e-05
-3.60325e-05
-3.92551e-05
-4.55256e-05
-5.11268e-05
-5.80725e-05
-6.61232e-05
-7.56612e-05
-8.66471e-05
-9.95262e-05
-0.000114625
-0.00013332
-0.000158798
-0.000179957
-0.000258065
-0.000218272
-0.000421269
-0.000235685
-1.73029e-05
-2.27248e-05
-2.68378e-05
-2.97683e-05
-3.52945e-05
-4.10519e-05
-4.93528e-05
-5.91146e-05
-7.04276e-05
-8.33111e-05
-9.7952e-05
-0.000114443
-0.000134178
-0.000156425
-0.000191091
-0.000220906
-0.000299931
-0.000329166
-0.000455927
-0.000362094
3.41791e-06
-2.09058e-05
-3.12513e-05
-4.54396e-05
-4.84255e-05
-5.80246e-05
-6.33673e-05
-7.38899e-05
-8.41483e-05
-9.89162e-05
-0.000113852
-0.000133824
-0.000157293
-0.000179
-0.000232184
-0.000268696
-0.000363151
-0.000510843
-0.000666187
-0.000471759
-6.05453e-06
-4.47306e-05
-3.6254e-05
-3.28724e-05
-3.24042e-05
-3.80133e-05
-4.71808e-05
-6.09313e-05
-7.6072e-05
-9.38103e-05
-0.000114858
-0.000135218
-0.00016517
-0.00018873
-0.000233482
-0.000292838
-0.000354257
-0.000534304
-0.00065223
-0.00024954
3.8741e-05
-3.63467e-05
-4.36031e-05
-5.25289e-05
-4.8053e-05
-6.46853e-05
-6.17177e-05
-8.7518e-05
-8.88728e-05
-0.000117526
-0.000133591
-0.000151811
-0.000191329
-0.000191865
-0.000251797
-0.000306195
-0.00029929
-0.000438936
-0.00042639
0.000408954
-9.62648e-05
-1.30639e-05
1.36863e-06
-5.95466e-06
-2.24648e-05
-3.13304e-05
-4.13913e-05
-6.37343e-05
-7.58426e-05
-9.71321e-05
-0.000124785
-0.000137007
-0.000164842
-0.000195483
-0.000204753
-0.000250136
-0.000206679
1.34867e-06
0.000418316
0.00181951
)
;

boundaryField
{
    movingWall
    {
        type            zeroGradient;
    }
    fixedWalls
    {
        type            zeroGradient;
    }
    frontAndBack
    {
        type            empty;
    }
}


// ************************************************************************* //
