/*--------------------------------*- C++ -*----------------------------------*\
| =========                 |                                                 |
| \\      /  F ield         | OpenFOAM: The Open Source CFD Toolbox           |
|  \\    /   O peration     | Version:  5.x                                   |
|   \\  /    A nd           | Web:      www.OpenFOAM.org                      |
|    \\/     M anipulation  |                                                 |
\*---------------------------------------------------------------------------*/
FoamFile
{
    version     2.0;
    format      ascii;
    class       volVectorField;
    location    "2.5";
    object      U;
}
// * * * * * * * * * * * * * * * * * * * * * * * * * * * * * * * * * * * * * //

dimensions      [0 1 -1 0 0 0 0];

internalField   nonuniform List<vector> 
400
(
(-7.29042e-05 7.24109e-05 0)
(-0.000222238 7.4806e-05 0)
(-0.000373236 7.35789e-05 0)
(-0.0005204 7.16079e-05 0)
(-0.000662716 6.87831e-05 0)
(-0.00079826 6.49484e-05 0)
(-0.00092481 5.99089e-05 0)
(-0.00103971 5.34344e-05 0)
(-0.00113982 4.52657e-05 0)
(-0.00122145 3.51294e-05 0)
(-0.00128039 2.27653e-05 0)
(-0.00131195 7.94551e-06 0)
(-0.00131081 -9.49967e-06 0)
(-0.00127157 -2.95287e-05 0)
(-0.00118969 -5.15669e-05 0)
(-0.00106199 -7.4599e-05 0)
(-0.000887687 -9.71427e-05 0)
(-0.000669679 -0.00011726 0)
(-0.000413982 -0.000132564 0)
(-0.000138779 -0.000136544 0)
(-7.66973e-05 0.000222502 0)
(-0.000233779 0.000229807 0)
(-0.0003926 0.000226029 0)
(-0.000547413 0.000219969 0)
(-0.000697193 0.000211295 0)
(-0.000839969 0.000199539 0)
(-0.000973482 0.000184114 0)
(-0.00109504 0.000164317 0)
(-0.00120144 0.000139353 0)
(-0.00128893 0.000108364 0)
(-0.00135317 7.05143e-05 0)
(-0.00138932 2.5105e-05 0)
(-0.00139175 -2.82312e-05 0)
(-0.00135433 -8.94461e-05 0)
(-0.00127153 -0.000157124 0)
(-0.00113935 -0.000228454 0)
(-0.000956162 -0.000298917 0)
(-0.000724236 -0.000362286 0)
(-0.000449254 -0.000410873 0)
(-0.000150902 -0.000424187 0)
(-7.79283e-05 0.000378348 0)
(-0.000237729 0.000390847 0)
(-0.000399637 0.000384596 0)
(-0.000557862 0.000374562 0)
(-0.00071158 0.000360196 0)
(-0.000858973 0.000340718 0)
(-0.000997933 0.000315147 0)
(-0.00112591 0.000282301 0)
(-0.00123983 0.000240806 0)
(-0.00133596 0.000189153 0)
(-0.00140986 0.000125808 0)
(-0.00145633 4.94286e-05 0)
(-0.00146925 -4.07884e-05 0)
(-0.00144147 -0.000145194 0)
(-0.00136569 -0.000261879 0)
(-0.0012357 -0.00038659 0)
(-0.00104742 -0.000511713 0)
(-0.00080106 -0.000626027 0)
(-0.000501065 -0.000715188 0)
(-0.000169149 -0.000742185 0)
(-7.95992e-05 0.00053644 0)
(-0.000243127 0.000554565 0)
(-0.000409328 0.000546231 0)
(-0.000572354 0.000532829 0)
(-0.00073169 0.00051358 0)
(-0.000885753 0.000487402 0)
(-0.00103268 0.000452922 0)
(-0.00117018 0.000408462 0)
(-0.00129537 0.000352027 0)
(-0.00140465 0.000281344 0)
(-0.00149353 0.000193981 0)
(-0.00155645 8.76112e-05 0)
(-0.0015868 -3.94832e-05 0)
(-0.00157573 -0.000188981 0)
(-0.00151314 -0.000358897 0)
(-0.00138931 -0.000544248 0)
(-0.0011957 -0.000734665 0)
(-0.000928424 -0.000913203 0)
(-0.000589005 -0.00105635 0)
(-0.000200751 -0.00110648 0)
(-8.16551e-05 0.000698419 0)
(-0.000249829 0.000722809 0)
(-0.000421436 0.000712941 0)
(-0.000590537 0.000697005 0)
(-0.000757036 0.000673979 0)
(-0.000919662 0.00064249 0)
(-0.0010769 0.000600794 0)
(-0.00122684 0.000546713 0)
(-0.00136698 0.00047758 0)
(-0.00149403 0.000390221 0)
(-0.00160361 0.000281024 0)
(-0.0016898 0.000146161 0)
(-0.00174585 -1.79596e-05 0)
(-0.0017609 -0.000213612 0)
(-0.00172098 -0.000441864 0)
(-0.00161152 -0.000698078 0)
(-0.0014165 -0.000970218 0)
(-0.00112392 -0.00123531 0)
(-0.000729235 -0.00145627 0)
(-0.000252957 -0.00154964 0)
(-8.39271e-05 0.000864902 0)
(-0.000257351 0.000896388 0)
(-0.000435185 0.000885694 0)
(-0.000611332 0.000868282 0)
(-0.000786226 0.000842865 0)
(-0.000958961 0.000807824 0)
(-0.00112849 0.000761098 0)
(-0.00129342 0.000700063 0)
(-0.00145189 0.000621392 0)
(-0.00160123 0.000520931 0)
(-0.00173761 0.00039365 0)
(-0.00185545 0.000233742 0)
(-0.00194659 3.49237e-05 0)
(-0.00199966 -0.000207376 0)
(-0.00199764 -0.000499028 0)
(-0.00191773 -0.000838393 0)
(-0.00173311 -0.00121458 0)
(-0.00141633 -0.00160059 0)
(-0.0009516 -0.00193957 0)
(-0.000340569 -0.0021191 0)
(-8.61886e-05 0.00103615 0)
(-0.000265065 0.00107581 0)
(-0.000449584 0.00106518 0)
(-0.000633389 0.00104758 0)
(-0.000817524 0.00102142 0)
(-0.00100146 0.00098491 0)
(-0.0011847 0.000935793 0)
(-0.00136658 0.000871141 0)
(-0.00154615 0.000787083 0)
(-0.00172181 0.000678525 0)
(-0.00189083 0.000538892 0)
(-0.00204855 0.00036 0)
(-0.002187 0.000132264 0)
(-0.0022949 -0.000154428 0)
(-0.00235205 -0.000511968 0)
(-0.00232716 -0.000946411 0)
(-0.00217891 -0.00145417 0)
(-0.00185192 -0.00201078 0)
(-0.0013126 -0.00253522 0)
(-0.000495142 -0.0028953 0)
(-8.8131e-05 0.00121193 0)
(-0.000272155 0.00126115 0)
(-0.000463429 0.00125171 0)
(-0.000655125 0.00123544 0)
(-0.000848935 0.00121039 0)
(-0.00104463 0.0011747 0)
(-0.00124231 0.00112616 0)
(-0.00144219 0.00106178 0)
(-0.00164456 0.000977439 0)
(-0.00184948 0.000867359 0)
(-0.0020562 0.000723564 0)
(-0.00226214 0.000535314 0)
(-0.0024611 0.000288635 0)
(-0.002644 -3.40642e-05 0)
(-0.00278974 -0.000451551 0)
(-0.00286003 -0.000988012 0)
(-0.00279761 -0.00165646 0)
(-0.00250267 -0.00244931 0)
(-0.00192155 -0.00326761 0)
(-0.000787199 -0.00402199 0)
(-8.92851e-05 0.00139136 0)
(-0.000277519 0.00145207 0)
(-0.000475263 0.00144524 0)
(-0.000674759 0.00143209 0)
(-0.00087832 0.00141006 0)
(-0.00108576 0.00137751 0)
(-0.0012977 0.00133255 0)
(-0.00151539 0.00127262 0)
(-0.00174066 0.00119381 0)
(-0.00197578 0.00109019 0)
(-0.00222297 0.000952882 0)
(-0.00248359 0.000768847 0)
(-0.0027565 0.000519316 0)
(-0.00303525 0.000178192 0)
(-0.00330623 -0.000284622 0)
(-0.00353224 -0.000912867 0)
(-0.00363999 -0.00175773 0)
(-0.00347363 -0.00285678 0)
(-0.00298968 -0.00412776 0)
(-0.00138773 -0.00577069 0)
(-8.89485e-05 0.0015719 0)
(-0.000279641 0.00164791 0)
(-0.000483317 0.00164541 0)
(-0.00069037 0.00163769 0)
(-0.00090359 0.00162043 0)
(-0.00112223 0.00159296 0)
(-0.0013473 0.00155423 0)
(-0.00158105 0.00150271 0)
(-0.00182713 0.00143548 0)
(-0.00209056 0.00134738 0)
(-0.00237773 0.00122999 0)
(-0.00269598 0.00106995 0)
(-0.00305215 0.000846484 0)
(-0.0034485 0.000527638 0)
(-0.00388164 6.43661e-05 0)
(-0.00433408 -0.000612364 0)
(-0.00474153 -0.00161946 0)
(-0.00489822 -0.00307885 0)
(-0.00490344 -0.00497574 0)
(-0.00274762 -0.00862648 0)
(-8.47663e-05 0.00175383 0)
(-0.000275245 0.00184661 0)
(-0.000485296 0.00185129 0)
(-0.00069982 0.00185107 0)
(-0.000923162 0.00184052 0)
(-0.00115208 0.00181954 0)
(-0.00138809 0.00178895 0)
(-0.0016343 0.00174895 0)
(-0.00189617 0.00169852 0)
(-0.00218145 0.00163437 0)
(-0.00250056 0.00154978 0)
(-0.00286716 0.0014323 0)
(-0.00329882 0.00125972 0)
(-0.00381746 0.000996492 0)
(-0.00444673 0.000584289 0)
(-0.00521746 -6.75486e-05 0)
(-0.00610836 -0.0011258 0)
(-0.00688977 -0.00286224 0)
(-0.00819065 -0.00534691 0)
(-0.00576921 -0.0134926 0)
(-7.90652e-05 0.00191138 0)
(-0.000264784 0.00206375 0)
(-0.000478521 0.0020647 0)
(-0.000701289 0.00208842 0)
(-0.000935214 0.00207665 0)
(-0.00117395 0.00205982 0)
(-0.00141807 0.00203507 0)
(-0.0016717 0.002007 0)
(-0.00194198 0.00197667 0)
(-0.00223966 0.00194417 0)
(-0.0025804 0.001908 0)
(-0.00298721 0.00186397 0)
(-0.00349004 0.0018005 0)
(-0.00412724 0.0016897 0)
(-0.00495096 0.00147517 0)
(-0.00605386 0.00106916 0)
(-0.00754921 0.000275265 0)
(-0.00914057 -0.00153309 0)
(-0.0128061 -0.00415394 0)
(-0.00941034 -0.0227557 0)
(-2.47006e-05 0.00212132 0)
(-0.000213733 0.00219449 0)
(-0.000460606 0.00225752 0)
(-0.000687736 0.00224515 0)
(-0.000952345 0.00227101 0)
(-0.00119394 0.00227107 0)
(-0.00144123 0.00226903 0)
(-0.00169299 0.00226088 0)
(-0.00195926 0.00225375 0)
(-0.00225019 0.00225335 0)
(-0.00258024 0.00226303 0)
(-0.00297299 0.00228304 0)
(-0.0034698 0.00231108 0)
(-0.00413773 0.00233807 0)
(-0.00506125 0.00234116 0)
(-0.00641074 0.00229752 0)
(-0.00861746 0.00219455 0)
(-0.00998926 0.000397512 0)
(-0.0161164 -0.00291532 0)
(-0.00556224 -0.0389299 0)
(-0.000118941 0.00205906 0)
(-0.000244525 0.0027019 0)
(-0.000424322 0.00257164 0)
(-0.000689258 0.00282002 0)
(-0.000907944 0.00270496 0)
(-0.00117597 0.0026848 0)
(-0.00142817 0.00261845 0)
(-0.00168724 0.00257651 0)
(-0.0019501 0.00256216 0)
(-0.00223163 0.00258905 0)
(-0.00255339 0.00266597 0)
(-0.00294422 0.00281359 0)
(-0.00344338 0.00304647 0)
(-0.00411066 0.00340286 0)
(-0.00500827 0.00388353 0)
(-0.0061386 0.0043994 0)
(-0.00866728 0.00533372 0)
(-0.00715152 0.00249054 0)
(-0.0154723 -0.00368671 0)
(0.00596417 -0.0497311 0)
(0.00047445 0.0026337 0)
(0.000192869 0.00222957 0)
(-0.000366738 0.00256314 0)
(-0.000555564 0.00231336 0)
(-0.00109693 0.00247763 0)
(-0.00128101 0.00247115 0)
(-0.00155093 0.00254109 0)
(-0.00174962 0.00259303 0)
(-0.00194677 0.00265568 0)
(-0.00214572 0.00273361 0)
(-0.00235409 0.00284617 0)
(-0.00259017 0.0030134 0)
(-0.00287614 0.0032792 0)
(-0.00328971 0.00365368 0)
(-0.004031 0.00424542 0)
(-0.00452804 0.0047647 0)
(-0.00792167 0.00566014 0)
(-0.00453896 0.00255531 0)
(-0.0150011 -0.00882292 0)
(0.00992781 -0.0494845 0)
(-0.000371398 0.00103337 0)
(-0.000307009 0.00395593 0)
(-0.000132824 0.0034952 0)
(-0.000695531 0.00426834 0)
(-0.000693701 0.00376386 0)
(-0.00109047 0.00375432 0)
(-0.00129156 0.00348507 0)
(-0.00156581 0.00336193 0)
(-0.00180612 0.00326543 0)
(-0.00204112 0.00328557 0)
(-0.00227569 0.00335182 0)
(-0.00251347 0.003641 0)
(-0.00280099 0.00403156 0)
(-0.00312916 0.00482827 0)
(-0.00384732 0.00631372 0)
(-0.00392832 0.00736397 0)
(-0.00675804 0.00909735 0)
(-0.00326879 0.00586269 0)
(-0.0133569 -0.0138669 0)
(0.00658886 -0.0549638 0)
(0.00147184 0.00380171 0)
(0.00117306 0.00202211 0)
(-0.00147896 0.00268336 0)
(-0.00110839 0.00203914 0)
(-0.00218491 0.00229523 0)
(-0.00186322 0.0022453 0)
(-0.00215611 0.00241917 0)
(-0.00209945 0.0025123 0)
(-0.00211606 0.00263548 0)
(-0.00212656 0.00274319 0)
(-0.0020524 0.00293479 0)
(-0.00198276 0.00311323 0)
(-0.00179392 0.00358356 0)
(-0.00114261 0.0039188 0)
(-0.00157509 0.00493212 0)
(-0.000333165 0.00570993 0)
(-0.00270437 0.00522487 0)
(-0.00266097 0.00500316 0)
(-0.00807219 -0.019743 0)
(0.00687413 -0.0614337 0)
(0.00280507 -0.00244469 0)
(0.00368603 0.00657348 0)
(0.00569453 0.00591049 0)
(0.00339159 0.0061945 0)
(0.00324908 0.00504238 0)
(0.00173346 0.00495561 0)
(0.00110672 0.00433505 0)
(0.000245235 0.00426754 0)
(-0.000337402 0.00382224 0)
(-0.000747961 0.00406577 0)
(-0.00120592 0.00357345 0)
(-0.00113298 0.00411842 0)
(-0.001478 0.00392398 0)
(-0.000722061 0.00456964 0)
(-0.000816507 0.00714601 0)
(1.61065e-05 0.00827098 0)
(0.00117679 0.0126003 0)
(0.00376374 0.0110587 0)
(0.00436583 -0.0205101 0)
(0.0119017 -0.0565921 0)
(-0.0162026 -0.00217346 0)
(-0.00717283 0.000605827 0)
(-0.0182758 0.00183165 0)
(-0.010208 0.00335736 0)
(-0.0155126 0.0028618 0)
(-0.0111413 0.003192 0)
(-0.0124128 0.00294379 0)
(-0.0110898 0.00294209 0)
(-0.00992852 0.00285968 0)
(-0.0102021 0.00271517 0)
(-0.00768833 0.0027289 0)
(-0.00858838 0.0024219 0)
(-0.00572214 0.00270314 0)
(-0.00500416 0.00277022 0)
(-0.00342674 0.00302183 0)
(0.00118458 0.00367653 0)
(0.00624327 -0.000342918 0)
(0.0119878 0.000148185 0)
(0.0179536 -0.0254005 0)
(0.0172386 -0.048246 0)
(0.00539117 0.0172988 0)
(0.012482 0.0112651 0)
(0.0148909 0.00863075 0)
(0.0224046 0.00606834 0)
(0.0238987 0.00571606 0)
(0.0314101 0.00441854 0)
(0.0300181 0.00395423 0)
(0.0382685 0.00412806 0)
(0.0366372 0.00237138 0)
(0.0428669 0.00391855 0)
(0.0430676 0.00186651 0)
(0.0475948 0.00270199 0)
(0.0469948 0.00243657 0)
(0.0532235 0.000912361 0)
(0.0502997 0.00271197 0)
(0.0560777 0.000363597 0)
(0.054577 -0.000168748 0)
(0.0544386 -0.000367839 0)
(0.0498502 -0.00919575 0)
(0.029991 -0.0137173 0)
)
;

boundaryField
{
    movingWall
    {
        type            fixedValue;
        value           uniform (1 0 0);
    }
    fixedWalls
    {
        type            noSlip;
    }
    frontAndBack
    {
        type            empty;
    }
}


// ************************************************************************* //
