/*--------------------------------*- C++ -*----------------------------------*\
| =========                 |                                                 |
| \\      /  F ield         | OpenFOAM: The Open Source CFD Toolbox           |
|  \\    /   O peration     | Version:  5.x                                   |
|   \\  /    A nd           | Web:      www.OpenFOAM.org                      |
|    \\/     M anipulation  |                                                 |
\*---------------------------------------------------------------------------*/
FoamFile
{
    version     2.0;
    format      ascii;
    class       surfaceScalarField;
    location    "1.1";
    object      phi;
}
// * * * * * * * * * * * * * * * * * * * * * * * * * * * * * * * * * * * * * //

dimensions      [0 3 -1 0 0 0 0];

internalField   nonuniform List<scalar> 
760
(
-4.16217e-09
4.16217e-09
-8.30008e-09
4.13791e-09
-1.22458e-08
3.94568e-09
-1.59081e-08
3.66236e-09
-1.92031e-08
3.29495e-09
-2.20548e-08
2.85172e-09
-2.43967e-08
2.34192e-09
-2.61722e-08
1.7755e-09
-2.73352e-08
1.16296e-09
-2.78506e-08
5.15466e-10
-2.76945e-08
-1.56178e-10
-2.6857e-08
-8.37497e-10
-2.53425e-08
-1.51442e-09
-2.31719e-08
-2.17067e-09
-2.03838e-08
-2.78811e-09
-1.70367e-08
-3.34705e-09
-1.32097e-08
-3.82702e-09
-9.00161e-09
-4.20808e-09
-4.52957e-09
-4.47204e-09
-4.52957e-09
-4.33106e-09
8.49323e-09
-8.63597e-09
8.44282e-09
-1.27403e-08
8.05001e-09
-1.65494e-08
7.47141e-09
-1.99761e-08
6.72165e-09
-2.29422e-08
5.81788e-09
-2.53794e-08
4.77912e-09
-2.72295e-08
3.62563e-09
-2.84452e-08
2.37863e-09
-2.89902e-08
1.06048e-09
-2.88397e-08
-3.06694e-10
-2.79809e-08
-1.69634e-09
-2.64179e-08
-3.07736e-09
-2.41701e-08
-4.41846e-09
-2.12756e-08
-5.68261e-09
-1.77933e-08
-6.82934e-09
-1.38042e-08
-7.81615e-09
-9.41113e-09
-8.60117e-09
-4.73731e-09
-9.14586e-09
-9.26688e-09
-4.52778e-09
1.3021e-08
-9.02778e-09
1.29428e-08
-1.33171e-08
1.23394e-08
-1.72972e-08
1.14515e-08
-2.08781e-08
1.03025e-08
-2.39795e-08
8.91928e-09
-2.65317e-08
7.33131e-09
-2.84755e-08
5.56949e-09
-2.97626e-08
3.66566e-09
-3.03551e-08
1.65302e-09
-3.02259e-08
-4.35898e-10
-2.93589e-08
-2.56335e-09
-2.77547e-08
-4.68156e-09
-2.54288e-08
-6.74439e-09
-2.2416e-08
-8.69543e-09
-1.87734e-08
-1.04719e-08
-1.45829e-08
-1.20066e-08
-9.95208e-09
-1.3232e-08
-5.0129e-09
-1.4085e-08
-1.42798e-08
-4.82912e-09
1.78501e-08
-9.62754e-09
1.77412e-08
-1.41993e-08
1.69111e-08
-1.84397e-08
1.5692e-08
-2.22546e-08
1.41174e-08
-2.55609e-08
1.22256e-08
-2.82872e-08
1.00577e-08
-3.03735e-08
7.65573e-09
-3.17699e-08
5.06205e-09
-3.24368e-08
2.31991e-09
-3.23441e-08
-5.2859e-10
-3.14693e-08
-3.43816e-09
-2.98078e-08
-6.343e-09
-2.73685e-08
-9.18372e-09
-2.41799e-08
-1.1884e-08
-2.02952e-08
-1.43566e-08
-1.57964e-08
-1.65053e-08
-1.07976e-08
-1.82309e-08
-5.44458e-09
-1.9438e-08
-1.97244e-08
-5.24373e-09
2.30939e-08
-1.04519e-08
2.29494e-08
-1.541e-08
2.18692e-08
-2.00049e-08
2.02869e-08
-2.41368e-08
1.82493e-08
-2.77197e-08
1.58084e-08
-3.06809e-08
1.30189e-08
-3.29597e-08
9.93449e-09
-3.45055e-08
6.60789e-09
-3.52768e-08
3.09124e-09
-3.52404e-08
-5.65029e-10
-3.4364e-08
-4.31452e-09
-3.26355e-08
-8.0715e-09
-3.0053e-08
-1.17662e-08
-2.66344e-08
-1.53027e-08
-2.24247e-08
-1.85663e-08
-1.75037e-08
-2.14263e-08
-1.19927e-08
-2.3742e-08
-6.05674e-09
-2.5374e-08
-2.57811e-08
-5.78345e-09
2.88773e-08
-1.15234e-08
2.86894e-08
-1.69801e-08
2.73258e-08
-2.20294e-08
2.53362e-08
-2.65648e-08
2.27847e-08
-3.04976e-08
1.97412e-08
-3.37551e-08
1.62763e-08
-3.62775e-08
1.24569e-08
-3.80151e-08
8.34553e-09
-3.89252e-08
4.00129e-09
-3.89718e-08
-5.18442e-10
-3.81092e-08
-5.17707e-09
-3.63142e-08
-9.86653e-09
-3.35689e-08
-1.45115e-08
-2.98733e-08
-1.89982e-08
-2.52571e-08
-2.31826e-08
-1.97921e-08
-2.68912e-08
-1.36054e-08
-2.99287e-08
-6.88701e-09
-3.20923e-08
-3.26681e-08
-6.46513e-09
3.53424e-08
-1.28737e-08
3.5098e-08
-1.89522e-08
3.34043e-08
-2.45627e-08
3.09467e-08
-2.95913e-08
2.78133e-08
-3.39479e-08
2.40979e-08
-3.75625e-08
1.98909e-08
-4.03796e-08
1.5274e-08
-4.23529e-08
1.03189e-08
-4.34404e-08
5.0888e-09
-4.3606e-08
-3.52817e-10
-4.27856e-08
-5.99751e-09
-4.09406e-08
-1.17115e-08
-3.80297e-08
-1.74224e-08
-3.40245e-08
-2.30035e-08
-2.89266e-08
-2.82805e-08
-2.27889e-08
-3.30289e-08
-1.57378e-08
-3.69798e-08
-7.99341e-09
-3.98368e-08
-4.06615e-08
-7.31268e-09
4.26551e-08
-1.45469e-08
4.23322e-08
-2.13849e-08
4.02423e-08
-2.7671e-08
3.72328e-08
-3.32844e-08
3.34268e-08
-3.8137e-08
2.89504e-08
-4.21659e-08
2.39198e-08
-4.53256e-08
1.84338e-08
-4.75784e-08
1.25716e-08
-4.88861e-08
6.3965e-09
-4.92178e-08
-2.10475e-11
-4.84854e-08
-6.72988e-09
-4.66316e-08
-1.35653e-08
-4.35799e-08
-2.04742e-08
-3.9258e-08
-2.73254e-08
-3.362e-08
-3.39184e-08
-2.66785e-08
-3.99704e-08
-1.85437e-08
-4.51146e-08
-9.46699e-09
-4.89134e-08
-5.01285e-08
-8.36054e-09
5.10157e-08
-1.66049e-08
5.05766e-08
-2.4358e-08
4.79953e-08
-3.14422e-08
4.4317e-08
-3.77318e-08
3.97164e-08
-4.3146e-08
3.43646e-08
-4.76378e-08
2.84116e-08
-5.11802e-08
2.19761e-08
-5.37526e-08
1.5144e-08
-5.53288e-08
7.97267e-09
-5.58778e-08
5.27994e-10
-5.5306e-08
-7.30172e-09
-5.35204e-08
-1.53509e-08
-5.03961e-08
-2.35985e-08
-4.57958e-08
-3.19257e-08
-3.95951e-08
-4.01191e-08
-3.17293e-08
-4.78363e-08
-2.22575e-08
-5.45864e-08
-1.14557e-08
-5.97152e-08
-6.15842e-08
-9.65952e-09
6.06752e-08
-1.91359e-08
6.0053e-08
-2.79825e-08
5.68419e-08
-3.59944e-08
5.2329e-08
-4.30459e-08
4.67678e-08
-4.90737e-08
4.03925e-08
-5.40594e-08
3.33973e-08
-5.80082e-08
2.59249e-08
-6.09296e-08
1.80654e-08
-6.28208e-08
9.86383e-09
-6.36503e-08
1.3575e-09
-6.334e-08
-7.61202e-09
-6.17483e-08
-1.69425e-08
-5.86871e-08
-2.66598e-08
-5.39222e-08
-3.66905e-08
-4.72065e-08
-4.68348e-08
-3.83356e-08
-5.67072e-08
-2.7245e-08
-6.5677e-08
-1.42109e-08
-7.27493e-08
-7.57951e-08
-1.12865e-08
7.19617e-08
-2.22675e-08
7.1034e-08
-3.24148e-08
6.69892e-08
-4.14883e-08
6.14025e-08
-4.93731e-08
5.46526e-08
-5.60403e-08
4.70597e-08
-6.15199e-08
3.88769e-08
-6.58692e-08
3.02742e-08
-6.91458e-08
2.1342e-08
-7.13848e-08
1.21029e-08
-7.25783e-08
2.551e-09
-7.26585e-08
-7.5319e-09
-7.14473e-08
-1.81537e-08
-6.86808e-08
-2.94262e-08
-6.39915e-08
-4.13798e-08
-5.69389e-08
-5.38874e-08
-4.70825e-08
-6.65636e-08
-3.40901e-08
-7.86695e-08
-1.81811e-08
-8.86583e-08
-9.39762e-08
-1.33669e-08
8.53286e-08
-2.61891e-08
8.38561e-08
-3.78798e-08
7.86799e-08
-4.81456e-08
7.16683e-08
-5.69063e-08
6.34133e-08
-6.4194e-08
5.43474e-08
-7.01162e-08
4.4799e-08
-7.48105e-08
3.49685e-08
-7.84101e-08
2.49417e-08
-8.10103e-08
1.4703e-08
-8.2646e-08
4.18675e-09
-8.32792e-08
-6.89872e-09
-8.27088e-08
-1.87241e-08
-8.05972e-08
-3.15378e-08
-7.64166e-08
-4.55604e-08
-6.9445e-08
-6.0859e-08
-5.88435e-08
-7.71652e-08
-4.37449e-08
-9.3768e-08
-2.42041e-08
-1.08199e-07
-1.1818e-07
-1.60586e-08
1.01387e-07
-3.11693e-08
9.89668e-08
-4.47022e-08
9.22128e-08
-5.62768e-08
8.32429e-08
-6.59044e-08
7.3041e-08
-7.37187e-08
6.21617e-08
-7.99486e-08
5.10288e-08
-8.48557e-08
3.98756e-08
-8.86838e-08
2.87698e-08
-9.16166e-08
1.76358e-08
-9.37574e-08
6.32756e-09
-9.51276e-08
-5.5285e-09
-9.55352e-08
-1.83166e-08
-9.45953e-08
-3.24777e-08
-9.16239e-08
-4.85318e-08
-8.55525e-08
-6.69304e-08
-7.49185e-08
-8.77992e-08
-5.77836e-08
-1.10903e-07
-3.39173e-08
-1.32065e-07
-1.52098e-07
-1.99411e-08
1.21328e-07
-3.77199e-08
1.16746e-07
-5.33983e-08
1.07891e-07
-6.63301e-08
9.61746e-08
-7.67156e-08
8.34264e-08
-8.48353e-08
7.02815e-08
-9.1116e-08
5.73095e-08
-9.5995e-08
4.47546e-08
-9.9863e-08
3.26378e-08
-1.03031e-07
2.08036e-08
-1.05689e-07
8.98559e-09
-1.07976e-07
-3.24156e-09
-1.09759e-07
-1.65333e-08
-1.10677e-07
-3.15596e-08
-1.09958e-07
-4.92513e-08
-1.06196e-07
-7.06921e-08
-9.71782e-08
-9.68169e-08
-7.87538e-08
-1.29327e-07
-5.06534e-08
-1.60166e-07
-2.02751e-07
-2.34059e-08
1.44734e-07
-4.59052e-08
1.39245e-07
-6.45442e-08
1.2653e-07
-7.89076e-08
1.10538e-07
-8.97894e-08
9.43083e-08
-9.78047e-08
7.82968e-08
-1.03706e-07
6.32108e-08
-1.08168e-07
4.92162e-08
-1.1176e-07
3.62305e-08
-1.14942e-07
2.39854e-08
-1.18029e-07
1.20728e-08
-1.21384e-07
1.13462e-10
-1.24921e-07
-1.29962e-08
-1.28506e-07
-2.79747e-08
-1.31474e-07
-4.62833e-08
-1.32222e-07
-6.99441e-08
-1.28196e-07
-1.00843e-07
-1.10427e-07
-1.47097e-07
-8.13177e-08
-1.89275e-07
-2.84069e-07
-3.75067e-08
1.82241e-07
-5.98299e-08
1.61568e-07
-8.00453e-08
1.46746e-07
-9.50244e-08
1.25517e-07
-1.05717e-07
1.05001e-07
-1.12917e-07
8.5497e-08
-1.17765e-07
6.80585e-08
-1.21231e-07
5.26828e-08
-1.24093e-07
3.90923e-08
-1.26975e-07
2.68673e-08
-1.3041e-07
1.55074e-08
-1.34539e-07
4.24237e-09
-1.40201e-07
-7.33348e-09
-1.47333e-07
-2.08431e-08
-1.55873e-07
-3.77433e-08
-1.64019e-07
-6.17976e-08
-1.70482e-07
-9.43811e-08
-1.59596e-07
-1.57982e-07
-1.38473e-07
-2.10398e-07
-4.22542e-07
-2.86614e-08
2.10902e-07
-7.18683e-08
2.04775e-07
-9.90236e-08
1.73901e-07
-1.15652e-07
1.42145e-07
-1.25388e-07
1.14736e-07
-1.30562e-07
9.06716e-08
-1.33298e-07
7.07941e-08
-1.34954e-07
5.43389e-08
-1.36442e-07
4.05806e-08
-1.38404e-07
2.8829e-08
-1.41366e-07
1.84693e-08
-1.45989e-07
8.86567e-09
-1.53504e-07
1.81783e-10
-1.63336e-07
-1.10112e-08
-1.78023e-07
-2.30567e-08
-1.95156e-07
-4.46647e-08
-2.25146e-07
-6.43906e-08
-2.30275e-07
-1.52854e-07
-2.34043e-07
-2.06629e-07
-6.56585e-07
-6.15054e-08
2.72408e-07
-9.07416e-08
2.34011e-07
-1.16474e-07
1.99633e-07
-1.36499e-07
1.6217e-07
-1.45238e-07
1.23476e-07
-1.48615e-07
9.40485e-08
-1.49121e-07
7.13005e-08
-1.48622e-07
5.38394e-08
-1.48393e-07
4.03522e-08
-1.49367e-07
2.98028e-08
-1.52509e-07
2.1611e-08
-1.58628e-07
1.49849e-08
-1.69072e-07
1.06254e-08
-1.85396e-07
5.31328e-09
-2.12578e-07
4.12544e-09
-2.46035e-07
-1.12079e-08
-2.91063e-07
-1.9363e-08
-3.06049e-07
-1.37867e-07
-2.49495e-07
-2.63184e-07
-9.0608e-07
-3.15765e-07
5.88173e-07
-3.09405e-07
2.27651e-07
-2.98648e-07
1.88876e-07
-2.69023e-07
1.32545e-07
-2.40123e-07
9.45763e-08
-2.13913e-07
6.7838e-08
-1.92873e-07
5.02609e-08
-1.76853e-07
3.78187e-08
-1.65048e-07
2.85472e-08
-1.56681e-07
2.1436e-08
-1.51433e-07
1.6363e-08
-1.47775e-07
1.13269e-08
-1.46932e-07
9.7829e-09
-1.44746e-07
3.12696e-09
-1.45459e-07
4.83819e-09
-1.40144e-07
-1.65228e-08
-1.158e-07
-4.37069e-08
-1.07682e-07
-1.45985e-07
1.19747e-09
-3.72064e-07
-9.04882e-07
5.88173e-07
8.15824e-07
1.0047e-06
1.13725e-06
1.23182e-06
1.29966e-06
1.34992e-06
1.38774e-06
1.41629e-06
1.43772e-06
1.45409e-06
1.46541e-06
1.47519e-06
1.47832e-06
1.48316e-06
1.46664e-06
1.42293e-06
1.27695e-06
9.04882e-07
)
;

boundaryField
{
    movingWall
    {
        type            calculated;
        value           uniform 0;
    }
    fixedWalls
    {
        type            calculated;
        value           uniform 0;
    }
    frontAndBack
    {
        type            empty;
        value           nonuniform 0();
    }
}


// ************************************************************************* //
