/*--------------------------------*- C++ -*----------------------------------*\
| =========                 |                                                 |
| \\      /  F ield         | OpenFOAM: The Open Source CFD Toolbox           |
|  \\    /   O peration     | Version:  5.x                                   |
|   \\  /    A nd           | Web:      www.OpenFOAM.org                      |
|    \\/     M anipulation  |                                                 |
\*---------------------------------------------------------------------------*/
FoamFile
{
    version     2.0;
    format      ascii;
    class       volScalarField;
    location    "13";
    object      p;
}
// * * * * * * * * * * * * * * * * * * * * * * * * * * * * * * * * * * * * * //

dimensions      [0 2 -2 0 0 0 0];

internalField   nonuniform List<scalar> 
400
(
-6.74069e-09
-0.00048162
-0.000840718
-0.00107377
-0.00116579
-0.00122388
-0.00123762
-0.00124073
-0.00124266
-0.00124368
-0.0012377
-0.00123553
-0.00122644
-0.00121477
-0.00121586
-0.0011681
-0.00103381
-0.000767055
-0.000627879
0.000286792
-0.00055615
-0.000885083
-0.00108465
-0.0011997
-0.00123533
-0.0012566
-0.00124571
-0.00124673
-0.00123407
-0.00123146
-0.00124391
-0.00122481
-0.00125393
-0.00121805
-0.00124413
-0.00121877
-0.00119859
-0.00107764
-0.00106298
-0.000429619
-0.000844504
-0.0011115
-0.00115408
-0.00123334
-0.00124561
-0.00124014
-0.0012551
-0.00124058
-0.0012497
-0.0012366
-0.00124512
-0.00122936
-0.00123968
-0.00122183
-0.00124107
-0.00121711
-0.00120111
-0.00113532
-0.00109535
-0.000834691
-0.00104307
-0.00118061
-0.00123125
-0.00123258
-0.00125315
-0.00124546
-0.00125213
-0.00124583
-0.00124767
-0.00123673
-0.00124361
-0.001226
-0.00124261
-0.00121832
-0.00123923
-0.001221
-0.00120397
-0.00117519
-0.00123671
-0.00107817
-0.0011616
-0.00121992
-0.00124439
-0.00123659
-0.00124683
-0.00124461
-0.00125199
-0.00124683
-0.00125054
-0.00123898
-0.00124365
-0.00122793
-0.00123994
-0.00122199
-0.00123426
-0.00121832
-0.00122063
-0.00119823
-0.00118489
-0.00113307
-0.00120475
-0.00122173
-0.00124959
-0.00123534
-0.00125183
-0.00124984
-0.00125872
-0.00125413
-0.0012549
-0.0012442
-0.00124114
-0.00123002
-0.00123582
-0.00121923
-0.00122785
-0.00120992
-0.00122512
-0.00118684
-0.00122334
-0.00117627
-0.0012403
-0.00121781
-0.00125223
-0.00124471
-0.00125453
-0.00125948
-0.00126556
-0.00126398
-0.0012625
-0.00125003
-0.00124166
-0.00123297
-0.00123984
-0.00122682
-0.00123715
-0.00122558
-0.00122758
-0.00119281
-0.00121301
-0.00117125
-0.00123558
-0.00124356
-0.00125425
-0.00126048
-0.00127021
-0.00127852
-0.00128743
-0.00128343
-0.00127657
-0.00126241
-0.00124008
-0.00123299
-0.00123394
-0.00122099
-0.00123239
-0.0012094
-0.00123284
-0.00118694
-0.001207
-0.00118599
-0.00126544
-0.00128115
-0.0012823
-0.00128552
-0.00129694
-0.00130825
-0.00131701
-0.00131427
-0.0013018
-0.00128285
-0.00124952
-0.00123985
-0.00124912
-0.0012327
-0.00124325
-0.0012399
-0.00124991
-0.00120031
-0.00124555
-0.00118466
-0.00131488
-0.00129454
-0.00129917
-0.00129409
-0.00132351
-0.00135123
-0.0013748
-0.00136625
-0.00133124
-0.00130795
-0.00125985
-0.00122808
-0.00124337
-0.00122054
-0.00124158
-0.0012207
-0.00124957
-0.00119303
-0.00118888
-0.00120327
-0.00129597
-0.00130621
-0.00131145
-0.00134126
-0.00138837
-0.0014556
-0.00149987
-0.00146751
-0.00139063
-0.00132813
-0.00128166
-0.00124092
-0.00126884
-0.00126083
-0.00128765
-0.00124967
-0.00126399
-0.001228
-0.00124159
-0.00123126
-0.00133103
-0.00133223
-0.001345
-0.00138963
-0.00152665
-0.00167573
-0.00177663
-0.00174693
-0.0015585
-0.00139807
-0.00130318
-0.00123654
-0.00126209
-0.00123321
-0.0012955
-0.00123945
-0.0012427
-0.00120977
-0.0012156
-0.00120962
-0.00133888
-0.0013541
-0.00135761
-0.00146029
-0.00165739
-0.00188685
-0.00202367
-0.00198693
-0.00175715
-0.00149127
-0.00133084
-0.001256
-0.00129673
-0.00128481
-0.0013416
-0.00127352
-0.00132437
-0.001215
-0.00128874
-0.0011526
-0.00129373
-0.00133111
-0.00137079
-0.00147299
-0.00169292
-0.00194271
-0.00207113
-0.00202335
-0.00179731
-0.00154901
-0.00132588
-0.00127885
-0.00129906
-0.00125521
-0.00126433
-0.00115918
-0.00119437
-0.00108951
-0.0011118
-0.00107423
-0.00122706
-0.00126132
-0.00129118
-0.00138424
-0.00163093
-0.0017819
-0.00193047
-0.00192455
-0.00170777
-0.00149904
-0.00132316
-0.00137168
-0.00125976
-0.00129302
-0.00139241
-0.00126363
-0.00135647
-0.00117908
-0.00127372
-0.00108369
-0.00107982
-0.00113738
-0.00117943
-0.00124788
-0.00140863
-0.00155296
-0.00164582
-0.00165827
-0.00155443
-0.00138157
-0.0013374
-0.00136487
-0.00132229
-0.00139081
-0.00143281
-0.00123436
-0.0010545
-0.00100195
-0.00108959
-0.00106151
-0.000951577
-0.00105506
-0.00106965
-0.00112664
-0.00124091
-0.0013952
-0.00146304
-0.00150929
-0.00141568
-0.00123718
-0.00137108
-0.00137247
-0.00150647
-0.00143367
-0.00119738
-0.00123032
-0.00124014
-0.00114931
-0.00129708
-0.00105115
-0.000733521
-0.000852385
-0.000928563
-0.00100442
-0.00108791
-0.00119335
-0.00126278
-0.00138176
-0.00145436
-0.00145528
-0.00150224
-0.00160051
-0.00156324
-0.00124824
-0.00110874
-0.00116955
-0.00115842
-0.00103446
-0.00105585
-0.000752221
-0.000566685
-0.000736373
-0.000798221
-0.000863514
-0.00092003
-0.000943544
-0.000990251
-0.00131433
-0.00168673
-0.00177525
-0.00161063
-0.00150834
-0.00153727
-0.00110874
-0.00122272
-0.00119152
-0.00107437
-0.00137012
-0.00087321
-0.000563254
-0.000557488
-0.000700212
-0.000752615
-0.000845811
-0.000988186
-0.0011761
-0.00128207
-0.00138267
-0.00153407
-0.00157549
-0.00148189
-0.00130196
-0.0011311
-0.00103042
-0.00103711
-0.00109155
-0.00118883
-0.00107885
-0.000327085
0.00111709
)
;

boundaryField
{
    movingWall
    {
        type            zeroGradient;
    }
    fixedWalls
    {
        type            zeroGradient;
    }
    frontAndBack
    {
        type            empty;
    }
}


// ************************************************************************* //
