/*--------------------------------*- C++ -*----------------------------------*\
| =========                 |                                                 |
| \\      /  F ield         | OpenFOAM: The Open Source CFD Toolbox           |
|  \\    /   O peration     | Version:  5.x                                   |
|   \\  /    A nd           | Web:      www.OpenFOAM.org                      |
|    \\/     M anipulation  |                                                 |
\*---------------------------------------------------------------------------*/
FoamFile
{
    version     2.0;
    format      ascii;
    class       surfaceScalarField;
    location    "13";
    object      phi;
}
// * * * * * * * * * * * * * * * * * * * * * * * * * * * * * * * * * * * * * //

dimensions      [0 3 -1 0 0 0 0];

internalField   nonuniform List<scalar> 
760
(
-1.05901e-06
1.05901e-06
-1.77084e-06
7.11831e-07
-2.09914e-06
3.28294e-07
-2.31041e-06
2.11272e-07
-2.36465e-06
5.42422e-08
-2.40266e-06
3.80107e-08
-2.40644e-06
3.77743e-09
-2.40582e-06
-6.22629e-10
-2.40785e-06
2.03547e-09
-2.41594e-06
8.09088e-09
-2.43115e-06
1.52075e-08
-2.43505e-06
3.90204e-09
-2.42507e-06
-9.98031e-09
-2.37601e-06
-4.90667e-08
-2.36688e-06
-9.12713e-09
-2.29934e-06
-6.75349e-08
-2.20842e-06
-9.09217e-08
-1.87504e-06
-3.33387e-07
-1.18286e-06
-6.92173e-07
-1.18286e-06
-6.27217e-07
1.68623e-06
-9.64783e-07
1.0494e-06
-1.06351e-06
4.27022e-07
-1.05577e-06
2.03535e-07
-1.04047e-06
3.89392e-08
-1.03115e-06
2.86875e-08
-1.01545e-06
-1.19148e-08
-1.01022e-06
-5.8616e-09
-9.90265e-07
-1.79149e-08
-9.79494e-07
-2.68058e-09
-9.64012e-07
-2.74109e-10
-9.472e-07
-1.29101e-08
-9.88529e-07
3.13484e-08
-1.02237e-06
-1.523e-08
-1.06347e-06
3.19805e-08
-1.02313e-06
-1.07881e-07
-9.71074e-07
-1.42975e-07
-9.77893e-07
-3.26567e-07
-9.44479e-07
-7.25588e-07
-2.12734e-06
-2.65433e-07
1.95166e-06
-3.97628e-07
1.18159e-06
-3.7396e-07
4.03354e-07
-3.44597e-07
1.74172e-07
-3.14184e-07
8.52579e-09
-3.02754e-07
1.72577e-08
-2.75295e-07
-3.93739e-08
-2.85656e-07
4.49904e-09
-2.55222e-07
-4.83483e-08
-2.67016e-07
9.11311e-09
-2.43714e-07
-2.35759e-08
-2.67138e-07
1.05142e-08
-2.76171e-07
4.03809e-08
-3.13479e-07
2.20784e-08
-3.23285e-07
4.17861e-08
-3.03012e-07
-1.28154e-07
-2.33714e-07
-2.12273e-07
-1.04668e-07
-4.55613e-07
-1.88162e-07
-6.42094e-07
-2.3155e-06
-1.50623e-07
2.10229e-06
-1.85235e-07
1.2162e-06
-1.50436e-07
3.68555e-07
-1.49985e-07
1.73721e-07
-1.66561e-07
2.51018e-08
-1.96877e-07
4.75729e-08
-2.24813e-07
-1.14375e-08
-2.5003e-07
2.97158e-08
-2.63699e-07
-3.46788e-08
-2.59954e-07
5.36785e-09
-2.584e-07
-2.51299e-08
-2.44143e-07
-3.74275e-09
-2.10771e-07
7.00846e-09
-1.62935e-07
-2.5757e-08
-1.31198e-07
1.00489e-08
-2.32324e-08
-2.3612e-07
-9.86922e-08
-1.36814e-07
-2.49924e-07
-3.04381e-07
-2.06934e-07
-6.85084e-07
-2.52244e-06
-5.16018e-08
2.15389e-06
-6.65626e-08
1.23116e-06
-2.5999e-08
3.27991e-07
-6.71834e-08
2.14905e-07
-1.51995e-07
1.09913e-07
-1.98405e-07
9.3983e-08
-2.37439e-07
2.75968e-08
-2.40617e-07
3.28934e-08
-2.30212e-07
-4.50835e-08
-2.18792e-07
-6.05253e-09
-1.70682e-07
-7.32397e-08
-1.33924e-07
-4.05004e-08
-7.76041e-08
-4.93116e-08
-1.75196e-08
-8.58415e-08
2.41624e-08
-3.1633e-08
5.28298e-08
-2.64787e-07
6.16321e-08
-1.45616e-07
8.49046e-08
-3.27653e-07
3.45674e-08
-6.34747e-07
-2.48787e-06
-2.36156e-08
2.1775e-06
-7.65935e-09
1.21521e-06
-2.12721e-08
3.41604e-07
-9.51416e-08
2.88775e-07
-1.83451e-07
1.98223e-07
-2.31324e-07
1.41856e-07
-2.71021e-07
6.72939e-08
-2.78942e-07
4.08145e-08
-2.72004e-07
-5.20214e-08
-2.63219e-07
-1.48377e-08
-2.17731e-07
-1.18728e-07
-1.85562e-07
-7.267e-08
-1.53629e-07
-8.1244e-08
-1.07717e-07
-1.31754e-07
-1.12305e-07
-2.70453e-08
-1.48724e-07
-2.28367e-07
-7.61777e-08
-2.18162e-07
-4.13032e-08
-3.62528e-07
-7.98712e-08
-5.96179e-07
-2.56774e-06
-9.52851e-09
2.18703e-06
-3.88404e-08
1.24452e-06
-1.06462e-07
4.09226e-07
-1.26684e-07
3.08996e-07
-2.09833e-07
2.81372e-07
-2.76862e-07
2.08884e-07
-3.10565e-07
1.00997e-07
-3.10149e-07
4.03983e-08
-2.84777e-07
-7.73932e-08
-2.76205e-07
-2.34101e-08
-1.85201e-07
-2.09731e-07
-1.42223e-07
-1.15648e-07
-7.47958e-08
-1.48671e-07
-2.20598e-08
-1.8449e-07
4.14002e-08
-9.05053e-08
1.15699e-07
-3.02666e-07
5.95126e-08
-1.61976e-07
4.84432e-08
-3.51458e-07
3.26161e-08
-5.80352e-07
-2.53512e-06
-3.68585e-08
2.22389e-06
-8.38018e-09
1.21604e-06
-7.77474e-08
4.78593e-07
-2.12127e-07
4.43376e-07
-3.05522e-07
3.74767e-07
-3.55563e-07
2.58925e-07
-4.04113e-07
1.49547e-07
-3.94089e-07
3.03742e-08
-3.67052e-07
-1.0443e-07
-3.64452e-07
-2.60094e-08
-2.51596e-07
-3.22587e-07
-2.17664e-07
-1.4958e-07
-1.93166e-07
-1.7317e-07
-2.02291e-07
-1.75365e-07
-1.11518e-07
-1.81278e-07
-9.7222e-08
-3.16962e-07
-1.1738e-07
-1.41818e-07
-5.38036e-08
-4.15035e-07
-5.47868e-08
-5.79369e-07
-2.58991e-06
-3.72319e-08
2.26112e-06
-6.99897e-08
1.2488e-06
-1.8391e-07
5.92513e-07
-2.30329e-07
4.89796e-07
-3.17373e-07
4.61811e-07
-4.28949e-07
3.70501e-07
-4.4439e-07
1.64988e-07
-4.18131e-07
4.11522e-09
-4.01696e-07
-1.20865e-07
-3.71561e-07
-5.61441e-08
-1.87392e-07
-5.06756e-07
-1.71233e-07
-1.65739e-07
-1.43442e-07
-2.00961e-07
-1.61715e-07
-1.57092e-07
-4.27461e-08
-3.00247e-07
3.63782e-08
-3.96086e-07
2.80786e-08
-1.33518e-07
4.39256e-08
-4.30882e-07
-4.48194e-09
-5.30961e-07
-2.59439e-06
-1.67174e-08
2.27784e-06
-1.29233e-09
1.23337e-06
-9.61873e-08
6.87408e-07
-2.71398e-07
6.65006e-07
-4.8052e-07
6.70933e-07
-6.35599e-07
5.2558e-07
-6.75609e-07
2.04998e-07
-6.06272e-07
-6.52213e-08
-5.10625e-07
-2.16513e-07
-3.49728e-07
-2.17041e-07
-2.03516e-07
-6.52968e-07
-1.8803e-07
-1.81225e-07
-2.01846e-07
-1.87145e-07
-2.48514e-07
-1.10424e-07
-2.81714e-07
-2.67046e-07
-3.33259e-07
-3.44541e-07
-2.2588e-07
-2.40898e-07
-7.07435e-08
-5.86018e-07
1.26492e-09
-6.0297e-07
-2.59313e-06
-1.31902e-08
2.29103e-06
-4.40704e-08
1.26425e-06
-1.8011e-07
8.23447e-07
-4.42035e-07
9.26931e-07
-7.4482e-07
9.73719e-07
-9.43008e-07
7.23768e-07
-1.00886e-06
2.70851e-07
-8.63038e-07
-2.11044e-07
-5.48734e-07
-5.30816e-07
-1.85365e-07
-5.8041e-07
-3.62785e-08
-8.02055e-07
-2.88883e-08
-1.88615e-07
-8.69557e-08
-1.29078e-07
-2.00109e-07
2.72902e-09
-2.65204e-07
-2.01951e-07
-2.74002e-07
-3.35743e-07
-1.67734e-07
-3.47165e-07
-9.0822e-08
-6.62931e-07
-3.06742e-08
-6.63118e-07
-2.6238e-06
-1.06882e-08
2.30172e-06
-8.33195e-08
1.33689e-06
-2.7148e-07
1.01161e-06
-5.51499e-07
1.20695e-06
-7.80806e-07
1.20303e-06
-9.40001e-07
8.82962e-07
-9.78072e-07
3.08922e-07
-8.41767e-07
-3.47349e-07
-5.37428e-07
-8.35155e-07
-1.38133e-07
-9.79706e-07
-1.86031e-08
-9.21584e-07
5.15244e-08
-2.58743e-07
7.58694e-08
-1.53423e-07
3.49828e-08
4.36156e-08
-7.7352e-08
-8.96164e-08
-9.08269e-08
-3.22268e-07
-1.31903e-07
-3.06089e-07
-2.06798e-07
-5.88036e-07
2.4138e-08
-8.94054e-07
-2.59966e-06
-9.39217e-09
2.31111e-06
2.78739e-08
1.29962e-06
-1.20539e-07
1.16002e-06
-2.7947e-07
1.36588e-06
-3.61409e-07
1.28496e-06
-3.51422e-07
8.72976e-07
-3.44866e-07
3.02365e-07
-2.61128e-07
-4.31087e-07
-1.07609e-07
-9.88674e-07
1.63072e-07
-1.25039e-06
2.04909e-07
-9.63422e-07
3.19312e-07
-3.73145e-07
4.74373e-07
-3.08485e-07
5.26229e-07
-8.2403e-09
4.99134e-07
-6.25212e-08
4.87545e-07
-3.10679e-07
3.49132e-07
-1.67677e-07
1.6005e-07
-3.98954e-07
-2.16825e-08
-7.12321e-07
-2.62135e-06
1.01036e-07
2.21007e-06
8.51165e-08
1.31554e-06
1.15478e-07
1.12966e-06
1.41448e-07
1.33991e-06
1.38968e-07
1.28744e-06
2.21481e-07
7.90464e-07
3.86659e-07
1.37188e-07
4.52624e-07
-4.97052e-07
4.2021e-07
-9.5626e-07
5.15373e-07
-1.34555e-06
4.52286e-07
-9.00335e-07
2.03713e-07
-1.24572e-07
3.22222e-08
-1.36994e-07
-5.32073e-08
7.71892e-08
3.01698e-08
-1.45898e-07
-5.92639e-08
-2.21245e-07
6.68904e-08
-2.93831e-07
1.02129e-07
-4.34193e-07
8.08338e-08
-6.91025e-07
-2.54051e-06
1.53499e-07
2.05658e-06
3.09578e-07
1.15946e-06
3.26608e-07
1.11263e-06
5.75045e-07
1.09147e-06
7.77612e-07
1.08488e-06
9.82597e-07
5.85478e-07
9.83006e-07
1.36778e-07
9.77431e-07
-4.91477e-07
1.03242e-06
-1.01125e-06
7.54078e-07
-1.0672e-06
4.96805e-07
-6.43062e-07
3.81736e-07
-9.502e-09
2.95195e-07
-5.04529e-08
-3.30723e-08
4.05456e-07
-1.27997e-07
-5.09733e-08
-1.88525e-07
-1.60718e-07
6.57324e-08
-5.48088e-07
4.77807e-08
-4.16241e-07
-1.15369e-07
-5.27875e-07
-2.65588e-06
1.45879e-07
1.9107e-06
2.43065e-07
1.06227e-06
5.63674e-07
7.92019e-07
7.26734e-07
9.28414e-07
1.01162e-06
7.99988e-07
1.23866e-06
3.58438e-07
1.31871e-06
5.67274e-08
1.34926e-06
-5.22025e-07
1.18444e-06
-8.46433e-07
6.55768e-07
-5.38528e-07
2.94412e-07
-2.81707e-07
5.03897e-07
-2.18987e-07
7.58746e-07
-3.05302e-07
1.10233e-06
6.18708e-08
1.13046e-06
-7.9103e-08
6.54722e-07
3.15022e-07
1.87847e-07
-8.12126e-08
-8.64409e-08
-1.41954e-07
5.87488e-08
-6.73065e-07
-2.59713e-06
2.40098e-07
1.6706e-06
3.10344e-07
9.92028e-07
5.43904e-07
5.5846e-07
8.35233e-07
6.37085e-07
1.12848e-06
5.06742e-07
1.26831e-06
2.18606e-07
1.49385e-06
-1.6881e-07
1.59347e-06
-6.21652e-07
1.09196e-06
-3.44913e-07
4.62318e-07
9.11094e-08
-3.18745e-08
2.12485e-07
-2.4432e-07
-6.54139e-09
-5.03746e-07
-4.58764e-08
-2.84539e-07
-1.57336e-07
-5.49786e-08
-3.08663e-07
-2.38409e-07
4.98452e-07
6.56603e-08
-3.85282e-07
3.66833e-08
-1.12977e-07
-9.53366e-08
-5.41045e-07
-2.69247e-06
5.36663e-07
1.13394e-06
9.61557e-07
5.67135e-07
1.2429e-06
2.77119e-07
1.49348e-06
3.86505e-07
1.64682e-06
3.53402e-07
1.80959e-06
5.58345e-08
1.96616e-06
-3.25382e-07
1.75246e-06
-4.07954e-07
1.67599e-06
-2.68444e-07
1.76663e-06
4.73587e-10
1.89584e-06
8.3274e-08
1.92473e-06
-3.5428e-08
1.68687e-06
1.91983e-07
1.17242e-06
3.57116e-07
8.92503e-07
-2.87502e-08
7.05396e-07
6.85559e-07
5.41541e-07
-2.21427e-07
4.06431e-07
2.21338e-08
2.9548e-07
-4.30095e-07
-2.39699e-06
3.29533e-07
8.04402e-07
5.93007e-07
3.03662e-07
7.3645e-07
1.33676e-07
8.09818e-07
3.13136e-07
8.03127e-07
3.60093e-07
6.41727e-07
2.17235e-07
1.28048e-07
1.88297e-07
-4.79166e-07
1.9926e-07
-8.56266e-07
1.08656e-07
-9.00561e-07
4.47685e-08
-7.76335e-07
-4.0952e-08
-7.44089e-07
-6.76746e-08
-5.15464e-07
-3.66425e-08
-2.40416e-07
8.20683e-08
-3.50851e-07
8.1685e-08
1.47737e-07
1.86971e-07
-1.62069e-07
8.83787e-08
8.39682e-08
-2.23904e-07
7.92053e-07
-1.13818e-06
-1.60494e-06
8.04402e-07
1.10806e-06
1.24174e-06
1.55488e-06
1.91497e-06
2.1322e-06
2.3205e-06
2.51976e-06
2.62842e-06
2.67319e-06
2.63223e-06
2.56456e-06
2.52792e-06
2.60999e-06
2.69167e-06
2.87864e-06
2.96702e-06
2.74312e-06
1.60494e-06
)
;

boundaryField
{
    movingWall
    {
        type            calculated;
        value           uniform 0;
    }
    fixedWalls
    {
        type            calculated;
        value           uniform 0;
    }
    frontAndBack
    {
        type            empty;
        value           nonuniform 0();
    }
}


// ************************************************************************* //
