/*--------------------------------*- C++ -*----------------------------------*\
| =========                 |                                                 |
| \\      /  F ield         | OpenFOAM: The Open Source CFD Toolbox           |
|  \\    /   O peration     | Version:  5.x                                   |
|   \\  /    A nd           | Web:      www.OpenFOAM.org                      |
|    \\/     M anipulation  |                                                 |
\*---------------------------------------------------------------------------*/
FoamFile
{
    version     2.0;
    format      ascii;
    class       volVectorField;
    location    "13";
    object      U;
}
// * * * * * * * * * * * * * * * * * * * * * * * * * * * * * * * * * * * * * //

dimensions      [0 1 -1 0 0 0 0];

internalField   nonuniform List<vector> 
400
(
(-0.0156023 0.00558341 0)
(-0.030345 0.00824905 0)
(-0.0402412 0.000949944 0)
(-0.0440792 0.0019796 0)
(-0.046187 -3.0136e-06 0)
(-0.0481321 -0.00101039 0)
(-0.0469101 -0.000842406 0)
(-0.0491587 -0.00109665 0)
(-0.0465076 -0.000989379 0)
(-0.0502576 -5.80723e-05 0)
(-0.0463175 -0.000836235 0)
(-0.0505803 0.000140062 0)
(-0.0468789 -0.00169511 0)
(-0.0494732 -0.00126886 0)
(-0.047228 -0.000811316 0)
(-0.0486359 -0.00113363 0)
(-0.044869 -0.0018383 0)
(-0.0400728 -0.00481133 0)
(-0.0407467 -0.0090029 0)
(-0.000246394 -0.0137093 0)
(-0.00984777 0.0325971 0)
(-0.0176274 0.0173609 0)
(-0.0199004 0.0105341 0)
(-0.0231822 0.00551745 0)
(-0.0177626 0.00179536 0)
(-0.0246583 0.00227811 0)
(-0.0156585 0.000969655 0)
(-0.02541 0.00105657 0)
(-0.0150043 0.00110376 0)
(-0.0239266 0.000452803 0)
(-0.0163333 0.00139046 0)
(-0.0208865 6.79963e-05 0)
(-0.0185253 0.00118316 0)
(-0.0194844 -0.000786628 0)
(-0.0228149 0.000338433 0)
(-0.0187157 -0.00193911 0)
(-0.0236802 -0.00256876 0)
(-0.0131572 -0.01046 0)
(-0.0297225 -0.022084 0)
(-0.00319867 -0.0385318 0)
(-0.00266204 0.0373098 0)
(-0.00956099 0.0255214 0)
(-0.00492857 0.00776412 0)
(-0.0108121 0.00312462 0)
(-0.00265012 -3.67148e-05 0)
(-0.00938885 -0.00092543 0)
(-0.00328316 -0.00150009 0)
(-0.00718783 -0.00123855 0)
(-0.00473922 -0.00194426 0)
(-0.00500389 -0.00059549 0)
(-0.00616929 -0.00139818 0)
(-0.00308061 -0.000663739 0)
(-0.00814947 0.000265303 0)
(-0.00230195 0.000179897 0)
(-0.0109317 0.00108425 0)
(-0.00143421 -0.00202987 0)
(-0.0112804 -0.00247318 0)
(0.00251909 -0.00136609 0)
(-0.0074228 -0.00421501 0)
(0.00124305 -0.0440791 0)
(-0.000355084 0.0405885 0)
(-0.00648851 0.0233934 0)
(-0.000667204 0.00762513 0)
(-0.00487894 0.00418799 0)
(-0.00150653 0.000349065 0)
(-0.00477604 0.00151427 0)
(-0.00343204 2.76466e-05 0)
(-0.00524805 0.00138091 0)
(-0.00508293 0.000148685 0)
(-0.00505276 0.000996513 0)
(-0.00581977 0.000504292 0)
(-0.00396226 0.00113734 0)
(-0.00640795 0.00121931 0)
(-0.00142578 0.000780392 0)
(-0.00561074 0.000535576 0)
(0.000680582 -0.00326422 0)
(-0.00168277 -0.00575085 0)
(-0.00182046 -0.0167725 0)
(-0.00941904 -0.0234439 0)
(0.00239008 -0.0496704 0)
(0.000201298 0.0447184 0)
(-0.00257249 0.0252334 0)
(-1.64365e-05 0.00777381 0)
(-0.000861966 0.00265817 0)
(-0.00202404 0.000769118 0)
(-0.00381057 0.000496368 0)
(-0.00441367 -0.000451929 0)
(-0.00477152 -0.000112376 0)
(-0.00519145 -0.00154853 0)
(-0.00363492 -0.000780403 0)
(-0.00551951 -0.00155777 0)
(-0.000900343 -0.00130815 0)
(-0.0048492 -0.000935311 0)
(0.00204887 -0.00189359 0)
(-0.00289121 -0.00013241 0)
(0.00400959 -0.00624745 0)
(-0.00211342 9.38712e-06 0)
(0.00478199 0.00428731 0)
(-0.0016638 -0.00197769 0)
(0.00329628 -0.0482166 0)
(0.000320171 0.0424365 0)
(-0.00129863 0.0250522 0)
(0.000901378 0.00531509 0)
(-0.00157205 0.0062116 0)
(-0.00253817 0.0034477 0)
(-0.00447806 0.0032112 0)
(-0.00510509 0.00149421 0)
(-0.00542195 0.00137976 0)
(-0.006036 -0.0002163 0)
(-0.00452561 0.000520586 0)
(-0.00629388 -0.00127625 0)
(-0.00208236 -0.000300523 0)
(-0.00572031 -0.000938376 0)
(-4.52156e-05 -0.00137134 0)
(-0.00459476 -0.00103026 0)
(0.000464244 -0.00394361 0)
(-0.0069161 -0.00566089 0)
(0.00430862 -0.0168072 0)
(-0.00632065 -0.0247524 0)
(0.00358096 -0.0527173 0)
(-0.000302781 0.0450009 0)
(5.03287e-05 0.0240724 0)
(-0.00188223 0.00854897 0)
(-0.00202589 0.00515546 0)
(-0.00324927 0.00473532 0)
(-0.00512944 0.00258648 0)
(-0.00615592 0.00133674 0)
(-0.00605569 0.000326986 0)
(-0.00660032 -0.0018068 0)
(-0.00450489 -0.00107193 0)
(-0.00673623 -0.00359087 0)
(-0.000414844 -0.00267155 0)
(-0.00559221 -0.00248144 0)
(0.00285239 -0.00414776 0)
(-0.00387345 -0.000178236 0)
(0.0057009 -0.00569593 0)
(-0.00141133 -0.00309108 0)
(0.00412504 0.00181249 0)
(-0.0025282 0.00166352 0)
(0.00409535 -0.0481307 0)
(-0.00151235 0.0439038 0)
(-6.87184e-05 0.0247167 0)
(-0.000249287 0.0079131 0)
(-0.00288295 0.0072454 0)
(-0.00574611 0.00634801 0)
(-0.00637643 0.00571481 0)
(-0.00814437 0.0025825 0)
(-0.00777918 0.00130146 0)
(-0.00799218 -0.00120176 0)
(-0.0066465 0.000169109 0)
(-0.00756918 -0.00457945 0)
(-0.00249314 -0.00181392 0)
(-0.00651721 -0.00316632 0)
(-0.000833193 -0.00289946 0)
(-0.00773906 -0.0032131 0)
(0.00369971 -0.00572068 0)
(-0.00805873 -0.00319406 0)
(0.00392061 -0.01537 0)
(-0.00640831 -0.0241233 0)
(0.00447339 -0.0542717 0)
(-0.00118579 0.0434882 0)
(-0.000440121 0.0239931 0)
(-0.00225944 0.0106735 0)
(-0.00490603 0.0101386 0)
(-0.00454618 0.00859224 0)
(-0.00827003 0.00480222 0)
(-0.00913073 0.00363708 0)
(-0.0085383 -4.33462e-05 0)
(-0.00805183 -0.00310634 0)
(-0.00824214 -0.00125036 0)
(-0.00609794 -0.00854619 0)
(-0.00152478 -0.00443957 0)
(-0.00570915 -0.00413774 0)
(0.000354734 -0.00448876 0)
(-0.00718038 -0.00434726 0)
(0.00561544 -0.0077409 0)
(-0.00440022 -0.0027739 0)
(0.00582412 -0.00183588 0)
(-0.00448825 -0.000345037 0)
(0.00443187 -0.0484584 0)
(-0.000501453 0.0473822 0)
(-4.69182e-05 0.0269187 0)
(-2.94792e-05 0.0135212 0)
(-0.00351261 0.0102068 0)
(-0.00779837 0.0105246 0)
(-0.0116729 0.0106422 0)
(-0.0143222 0.00333009 0)
(-0.0122796 0.000244068 0)
(-0.0113688 -0.0014593 0)
(-0.00966423 -0.00109939 0)
(-0.00375987 -0.0114074 0)
(-0.00406975 -0.00181642 0)
(-0.00400798 -0.00344336 0)
(-0.00350044 -0.00130554 0)
(-0.00708609 -0.00707787 0)
(-0.00347791 -0.00722537 0)
(-0.0107849 -0.00228053 0)
(0.00252867 -0.0146512 0)
(-0.00557382 -0.0194183 0)
(0.0055936 -0.0547439 0)
(-0.00126989 0.0450883 0)
(0.000674668 0.0218353 0)
(-0.00226659 0.0138554 0)
(-0.00510267 0.0156365 0)
(-0.0128512 0.016587 0)
(-0.0177681 0.0110615 0)
(-0.0208025 0.00542006 0)
(-0.0187888 -0.00242658 0)
(-0.0146855 -0.00662059 0)
(-0.00757752 -0.00712586 0)
(0.000187619 -0.015111 0)
(-0.00142595 -0.00582069 0)
(2.14866e-05 -0.00453186 0)
(-0.00315372 -0.00363232 0)
(-0.00546827 -0.00426988 0)
(-0.00436047 -0.00732209 0)
(-0.00734807 -0.00783303 0)
(0.00120568 -0.00984323 0)
(-0.00519087 -0.00619716 0)
(0.00410835 -0.050618 0)
(-0.000369545 0.0444364 0)
(-2.58265e-05 0.0282948 0)
(-0.00309776 0.0184645 0)
(-0.00721541 0.0221521 0)
(-0.0158266 0.0210998 0)
(-0.0163948 0.0165642 0)
(-0.0222165 0.0044579 0)
(-0.0177052 -0.00699911 0)
(-0.014154 -0.0154991 0)
(-0.00687898 -0.0165102 0)
(0.00101364 -0.0165021 0)
(-0.00160974 -0.00132303 0)
(0.00328048 -0.000196485 0)
(0.000220094 0.00382733 0)
(0.000806015 -0.00325205 0)
(-0.00336155 -0.00536674 0)
(-0.000697698 -0.00506799 0)
(-0.00413864 -0.0156699 0)
(-0.00452385 -0.0188 0)
(0.00552428 -0.0546217 0)
(-0.00333132 0.0487703 0)
(0.00289838 0.024654 0)
(-0.00152857 0.0223274 0)
(-0.00349444 0.0246163 0)
(-0.00825353 0.0255935 0)
(-0.00715862 0.0171299 0)
(-0.00764009 0.00688083 0)
(-0.00612793 -0.00798601 0)
(-0.00341157 -0.0196859 0)
(-0.000354115 -0.0235292 0)
(0.0064864 -0.0212719 0)
(0.0021383 -0.00934708 0)
(0.00959465 -0.00639038 0)
(0.0104087 -0.00245851 0)
(0.00922097 -0.00088053 0)
(0.0123105 -0.00863922 0)
(0.00554359 -0.00856404 0)
(0.00995289 -0.00918517 0)
(-0.00465424 -0.0194676 0)
(0.00417451 -0.0501402 0)
(0.00217271 0.0428192 0)
(0.00160551 0.0268514 0)
(0.00212093 0.0225058 0)
(0.0028592 0.029783 0)
(0.0022709 0.0250732 0)
(0.00263653 0.0175397 0)
(0.00568996 0.00559088 0)
(0.00994609 -0.00845921 0)
(0.00937368 -0.0197066 0)
(0.00812652 -0.0275153 0)
(0.0135429 -0.0164378 0)
(0.00365379 -0.0049182 0)
(0.00375778 -0.00639636 0)
(-0.00218539 0.00228131 0)
(-0.000350084 -0.000970508 0)
(0.00197799 -0.00228363 0)
(-0.00489054 0.00314586 0)
(0.00818532 -0.0051311 0)
(-0.00473045 -0.0061245 0)
(0.0083627 -0.0523193 0)
(-0.00182485 0.0452832 0)
(0.00760713 0.0259777 0)
(0.00545498 0.0240271 0)
(0.00832426 0.0250801 0)
(0.0129668 0.0264705 0)
(0.0194483 0.0156046 0)
(0.018047 0.000161777 0)
(0.0206036 -0.0118734 0)
(0.0206897 -0.0172871 0)
(0.0198258 -0.0265974 0)
(0.0120337 -0.0189382 0)
(0.00584679 -0.000722703 0)
(0.0109925 0.00156415 0)
(8.15545e-05 0.000886537 0)
(-0.00185105 -0.00580987 0)
(-0.00218868 -0.00781512 0)
(-0.00671418 -0.0169855 0)
(0.0102027 -0.0142584 0)
(-0.00905241 -0.0245771 0)
(0.00547128 -0.0514565 0)
(0.000212197 0.0385675 0)
(0.00513518 0.0215725 0)
(0.00510464 0.0201237 0)
(0.0180873 0.0196606 0)
(0.00974517 0.0190696 0)
(0.029801 0.00902071 0)
(0.0200496 0.00612869 0)
(0.0314966 -0.00607804 0)
(0.0240045 -0.0230095 0)
(0.0251924 -0.0154406 0)
(0.00025269 -0.00690947 0)
(0.0106511 0.000466614 0)
(0.0109211 -0.00363362 0)
(0.0177331 0.0142007 0)
(0.0242252 0.00330428 0)
(0.0235838 0.00213203 0)
(0.00291835 -0.00170853 0)
(0.00465793 -0.000171336 0)
(-0.00877617 0.0062275 0)
(0.011536 -0.0530421 0)
(0.00136931 0.0362153 0)
(0.00725814 0.0194455 0)
(0.00610413 0.0118936 0)
(0.0153382 0.0169492 0)
(0.0173256 0.0119887 0)
(0.0262865 0.00442912 0)
(0.024377 -0.00421573 0)
(0.0343463 -0.0154901 0)
(0.0311467 -0.00909993 0)
(0.0153132 -0.00406858 0)
(0.0011895 -0.00412845 0)
(-0.00202707 -0.00832471 0)
(-0.00900747 -0.00981741 0)
(-0.0107442 -0.0121507 0)
(0.000894579 -0.00567815 0)
(-0.00364685 0.00962278 0)
(-0.00643247 -0.0026552 0)
(0.00971983 -0.00681196 0)
(-0.00891715 -0.0364924 0)
(0.00621077 -0.0548883 0)
(0.00354206 0.0331082 0)
(0.0165572 0.0222762 0)
(0.0228566 0.0104869 0)
(0.027684 0.00879226 0)
(0.0315341 0.00842305 0)
(0.0332792 0.00427577 0)
(0.0406746 -0.00263317 0)
(0.0359331 -0.00859604 0)
(0.0352121 -0.00490244 0)
(0.0333235 0.00702264 0)
(0.0358647 0.0119773 0)
(0.0380909 0.00775281 0)
(0.0386256 0.00825619 0)
(0.0326691 0.0068022 0)
(0.0133606 -0.00656144 0)
(0.0201913 0.0115218 0)
(0.00734231 -0.011346 0)
(0.0160133 0.00356523 0)
(-0.00171566 0.0171789 0)
(0.0154566 -0.0481544 0)
(-0.00244659 0.0122118 0)
(0.0143097 -0.000175174 0)
(0.0105569 0.00127376 0)
(0.0182882 0.00775314 0)
(0.0139429 0.00706201 0)
(0.019342 -0.00128515 0)
(0.00801986 -0.00836886 0)
(-0.00365122 -0.0080271 0)
(-0.0171042 -0.0075669 0)
(-0.0161971 -0.0073144 0)
(-0.0176519 -0.0092115 0)
(-0.0123407 -0.00878217 0)
(-0.0203523 -0.00168273 0)
(0.00293391 0.00689088 0)
(-0.0143672 0.00487197 0)
(0.00104468 0.0143642 0)
(0.00607305 0.00346994 0)
(-0.0145363 -0.00336049 0)
(0.0191644 -0.0362637 0)
(0.0138012 -0.0564433 0)
(0.00503006 0.0183586 0)
(0.0253899 0.0118955 0)
(0.0205864 0.00375815 0)
(0.0282912 0.00391061 0)
(0.0335222 0.00583912 0)
(0.0414508 0.00821181 0)
(0.0451042 0.0140968 0)
(0.0464847 0.0152186 0)
(0.0526272 0.0129792 0)
(0.053915 0.0098959 0)
(0.0540141 0.00812892 0)
(0.0526975 0.0067387 0)
(0.0507448 0.000961524 0)
(0.0512392 -0.00339489 0)
(0.0519523 -0.000711805 0)
(0.0557961 -0.00599647 0)
(0.0553918 -0.000668156 0)
(0.0585522 -0.00356658 0)
(0.0492538 -0.0047357 0)
(0.0231759 0.00230219 0)
)
;

boundaryField
{
    movingWall
    {
        type            fixedValue;
        value           uniform (1 0 0);
    }
    fixedWalls
    {
        type            noSlip;
    }
    frontAndBack
    {
        type            empty;
    }
}


// ************************************************************************* //
