/*--------------------------------*- C++ -*----------------------------------*\
| =========                 |                                                 |
| \\      /  F ield         | OpenFOAM: The Open Source CFD Toolbox           |
|  \\    /   O peration     | Version:  5.x                                   |
|   \\  /    A nd           | Web:      www.OpenFOAM.org                      |
|    \\/     M anipulation  |                                                 |
\*---------------------------------------------------------------------------*/
FoamFile
{
    version     2.0;
    format      ascii;
    class       volScalarField;
    location    "10.8";
    object      p;
}
// * * * * * * * * * * * * * * * * * * * * * * * * * * * * * * * * * * * * * //

dimensions      [0 2 -2 0 0 0 0];

internalField   nonuniform List<scalar> 
400
(
-1.34525e-09
-0.000499673
-0.00083558
-0.0010285
-0.00113777
-0.00118943
-0.00119357
-0.0012039
-0.00121481
-0.00121155
-0.00120577
-0.00119519
-0.00120176
-0.00119055
-0.00116302
-0.00111841
-0.00101141
-0.000767737
-0.000567148
0.000330186
-0.000605267
-0.000879119
-0.00105531
-0.00112293
-0.00117508
-0.00121028
-0.00120648
-0.0012049
-0.00121953
-0.00121934
-0.00120528
-0.00119265
-0.00121279
-0.00119185
-0.0011729
-0.00116025
-0.00117259
-0.00108744
-0.00101764
-0.000393961
-0.000832828
-0.00106591
-0.0011317
-0.00115868
-0.00118719
-0.0012051
-0.00120719
-0.00120758
-0.00121818
-0.00120508
-0.00121629
-0.00119474
-0.00121379
-0.00119317
-0.00119208
-0.00117165
-0.00118169
-0.00114603
-0.00106679
-0.000814848
-0.000995766
-0.00111123
-0.00112993
-0.00115663
-0.00117941
-0.00119905
-0.00120926
-0.00121105
-0.00121796
-0.00121131
-0.00121167
-0.00119796
-0.00120118
-0.00118394
-0.00119093
-0.00116751
-0.00118337
-0.00117492
-0.00121772
-0.00106582
-0.00106926
-0.00111476
-0.00111831
-0.00115567
-0.00118073
-0.0012014
-0.00121391
-0.00121375
-0.00122167
-0.00120928
-0.00121824
-0.00119845
-0.00121281
-0.00119207
-0.00120649
-0.00119345
-0.00120737
-0.0011945
-0.00118315
-0.00112295
-0.00111441
-0.00112897
-0.00113079
-0.00116924
-0.00119976
-0.00121929
-0.00123096
-0.00122678
-0.00123012
-0.00121659
-0.0012163
-0.00120082
-0.00120094
-0.00118559
-0.00118965
-0.0011732
-0.00119217
-0.00116089
-0.00119065
-0.00116215
-0.0011235
-0.00111691
-0.0011476
-0.0012023
-0.00123551
-0.00125348
-0.0012551
-0.00124557
-0.00124348
-0.00122527
-0.00122605
-0.00120696
-0.00121465
-0.0011949
-0.00121043
-0.00119214
-0.00121205
-0.00119369
-0.00122392
-0.00116946
-0.0012062
-0.00122191
-0.00125215
-0.0013032
-0.00132745
-0.00132456
-0.00130432
-0.00127615
-0.00126005
-0.00123429
-0.00122491
-0.001205
-0.00120274
-0.00118502
-0.00119128
-0.00117123
-0.00118913
-0.00115797
-0.00117298
-0.00117129
-0.00128694
-0.00131991
-0.00137225
-0.00144741
-0.00148079
-0.00145058
-0.00138137
-0.00132111
-0.0012856
-0.00125238
-0.00123784
-0.00121475
-0.00121633
-0.00118976
-0.00120685
-0.00118063
-0.0012071
-0.00118249
-0.0012241
-0.00117336
-0.00138748
-0.00148379
-0.00161644
-0.00173501
-0.00174698
-0.00166825
-0.00150426
-0.00136997
-0.00130052
-0.00124935
-0.00123202
-0.00120124
-0.00120031
-0.00117603
-0.00118875
-0.00116375
-0.00118303
-0.00114668
-0.00116608
-0.00115953
-0.00148173
-0.00163197
-0.00179831
-0.00195122
-0.00199972
-0.00190877
-0.00166519
-0.00144482
-0.0013357
-0.00126879
-0.00124538
-0.00121043
-0.00121578
-0.0011804
-0.00119085
-0.00116044
-0.00120258
-0.00115697
-0.00121396
-0.00115053
-0.00143647
-0.00160085
-0.00183283
-0.00203659
-0.00217619
-0.00205562
-0.0017069
-0.00144698
-0.00132418
-0.00123954
-0.00122522
-0.00118506
-0.00118286
-0.00116251
-0.00117249
-0.00113552
-0.00117033
-0.00112978
-0.00114678
-0.0011186
-0.00121815
-0.00145922
-0.00172904
-0.0019754
-0.002101
-0.00197677
-0.00165431
-0.00139103
-0.00119675
-0.00118308
-0.00118587
-0.00118804
-0.00120067
-0.00118097
-0.00119783
-0.00111765
-0.00117614
-0.00114097
-0.00117259
-0.00112554
-0.000857886
-0.00114411
-0.00145643
-0.00168106
-0.00178379
-0.00165507
-0.00144481
-0.00131779
-0.00129734
-0.00127853
-0.00121526
-0.00119374
-0.00117342
-0.0011413
-0.00110485
-0.00108986
-0.00115319
-0.00108199
-0.00116175
-0.0011317
-0.000656408
-0.00096873
-0.00119547
-0.00136028
-0.00139842
-0.00133032
-0.00124394
-0.00121608
-0.00126537
-0.00119415
-0.00118876
-0.00123792
-0.00114081
-0.00124477
-0.00113305
-0.00118405
-0.00122652
-0.0011573
-0.00128367
-0.00115833
-0.000851762
-0.00104616
-0.00112539
-0.00113945
-0.00113185
-0.00113019
-0.00115
-0.00114858
-0.00115217
-0.00112609
-0.00111771
-0.00110909
-0.00110134
-0.00111035
-0.00109727
-0.0010595
-0.00109957
-0.00114593
-0.001132
-0.00110107
-0.000974387
-0.00111582
-0.00114827
-0.00109734
-0.00104803
-0.00104067
-0.00107111
-0.00108357
-0.00114405
-0.00111219
-0.00115005
-0.00115695
-0.00112832
-0.00119976
-0.00112699
-0.00120555
-0.0013456
-0.00110766
-0.001248
-0.000999781
-0.000989457
-0.00114797
-0.00106807
-0.00106637
-0.00105853
-0.0010718
-0.00109696
-0.0011114
-0.00112196
-0.00111765
-0.00112993
-0.00109621
-0.00111273
-0.00112085
-0.00110748
-0.00126251
-0.00118482
-0.000938508
-0.000996276
-0.000761272
-0.000943615
-0.00108209
-0.00108001
-0.0010638
-0.00102451
-0.00101492
-0.00105211
-0.00107066
-0.00110561
-0.00111552
-0.00113499
-0.001114
-0.001176
-0.00109552
-0.00119077
-0.00118411
-0.00106909
-0.00129154
-0.000983288
-0.000557388
-0.00110079
-0.00105305
-0.000976576
-0.00105185
-0.00103459
-0.00105233
-0.00107085
-0.00108781
-0.00109632
-0.00110235
-0.00110093
-0.00109602
-0.00108595
-0.00107753
-0.00112012
-0.00115385
-0.00108268
-0.000832943
-0.000397221
0.000945809
)
;

boundaryField
{
    movingWall
    {
        type            zeroGradient;
    }
    fixedWalls
    {
        type            zeroGradient;
    }
    frontAndBack
    {
        type            empty;
    }
}


// ************************************************************************* //
