/*--------------------------------*- C++ -*----------------------------------*\
| =========                 |                                                 |
| \\      /  F ield         | OpenFOAM: The Open Source CFD Toolbox           |
|  \\    /   O peration     | Version:  5.x                                   |
|   \\  /    A nd           | Web:      www.OpenFOAM.org                      |
|    \\/     M anipulation  |                                                 |
\*---------------------------------------------------------------------------*/
FoamFile
{
    version     2.0;
    format      ascii;
    class       surfaceScalarField;
    location    "5.4";
    object      phi;
}
// * * * * * * * * * * * * * * * * * * * * * * * * * * * * * * * * * * * * * //

dimensions      [0 3 -1 0 0 0 0];

internalField   nonuniform List<scalar> 
760
(
-2.45971e-08
2.45971e-08
-5.16685e-08
2.70714e-08
-8.13606e-08
2.96921e-08
-1.15542e-07
3.41812e-08
-1.56918e-07
4.13759e-08
-2.0984e-07
5.29219e-08
-2.81907e-07
7.20669e-08
-3.87351e-07
1.05444e-07
-5.54414e-07
1.67063e-07
-8.39387e-07
2.84974e-07
-1.33065e-06
4.91267e-07
-2.04407e-06
7.1342e-07
-2.69925e-06
6.55175e-07
-3.00467e-06
3.0542e-07
-3.0851e-06
8.04248e-08
-3.06219e-06
-2.29058e-08
-2.80918e-06
-2.5301e-07
-2.17792e-06
-6.31257e-07
-1.2559e-06
-9.22019e-07
-1.2559e-06
-2.5308e-08
4.99051e-08
-5.30175e-08
5.47808e-08
-8.30071e-08
5.96817e-08
-1.16712e-07
6.78857e-08
-1.55874e-07
8.05382e-08
-2.02677e-07
9.97254e-08
-2.59721e-07
1.2911e-07
-3.29344e-07
1.75068e-07
-4.1068e-07
2.48399e-07
-4.91454e-07
3.65747e-07
-5.43167e-07
5.4298e-07
-5.87953e-07
7.58207e-07
-8.16873e-07
8.84095e-07
-1.31298e-06
8.0153e-07
-1.77442e-06
5.41858e-07
-1.93103e-06
1.33712e-07
-1.81103e-06
-3.73017e-07
-1.52407e-06
-9.18214e-07
-1.02181e-06
-1.42428e-06
-2.27771e-06
-2.30954e-08
7.30005e-08
-4.8302e-08
7.99874e-08
-7.51239e-08
8.65036e-08
-1.04423e-07
9.71846e-08
-1.37014e-07
1.13129e-07
-1.73537e-07
1.36248e-07
-2.13939e-07
1.69512e-07
-2.56175e-07
2.17305e-07
-2.93403e-07
2.85627e-07
-3.09191e-07
3.81535e-07
-2.76114e-07
5.09902e-07
-1.77884e-07
6.59977e-07
-8.17157e-08
7.87927e-07
-7.14279e-08
7.91242e-07
-1.43223e-07
6.13653e-07
-2.52141e-07
2.42629e-07
-3.68281e-07
-2.56877e-07
-4.91556e-07
-7.94939e-07
-3.52678e-07
-1.56316e-06
-2.63039e-06
-1.99141e-08
9.29146e-08
-4.16268e-08
1.017e-07
-6.4272e-08
1.09149e-07
-8.8186e-08
1.21099e-07
-1.13392e-07
1.38335e-07
-1.39394e-07
1.6225e-07
-1.6468e-07
1.94799e-07
-1.85856e-07
2.3848e-07
-1.9621e-07
2.95981e-07
-1.83585e-07
3.6891e-07
-1.31051e-07
4.57368e-07
-1.82363e-08
5.47162e-07
1.42671e-07
6.2702e-07
3.04849e-07
6.29064e-07
3.85885e-07
5.32617e-07
3.57078e-07
2.71437e-07
1.98371e-07
-9.81701e-08
-7.39197e-09
-5.89176e-07
-1.37017e-07
-1.43354e-06
-2.7674e-06
-1.62116e-08
1.09126e-07
-3.39746e-08
1.19463e-07
-5.2145e-08
1.27319e-07
-7.06344e-08
1.39588e-07
-8.89458e-08
1.56647e-07
-1.06011e-07
1.79315e-07
-1.19828e-07
2.08616e-07
-1.26956e-07
2.45608e-07
-1.22123e-07
2.91148e-07
-9.62038e-08
3.42991e-07
-4.24794e-08
4.03644e-07
5.43304e-08
4.50352e-07
1.83788e-07
4.97562e-07
3.35233e-07
4.77619e-07
4.37795e-07
4.30055e-07
4.75341e-07
2.3389e-07
3.91287e-07
-1.41154e-08
2.52435e-07
-4.50324e-07
1.13348e-07
-1.29445e-06
-2.65406e-06
-1.22545e-08
1.21381e-07
-2.59462e-08
1.33155e-07
-3.97595e-08
1.41132e-07
-5.33231e-08
1.53152e-07
-6.58857e-08
1.69209e-07
-7.61589e-08
1.89588e-07
-8.22347e-08
2.14691e-07
-8.09822e-08
2.44356e-07
-6.96084e-08
2.79774e-07
-3.88439e-08
3.12226e-07
7.4918e-09
3.57308e-07
8.20029e-08
3.75841e-07
1.72112e-07
4.07453e-07
2.82964e-07
3.66767e-07
3.61992e-07
3.51027e-07
4.09467e-07
1.86415e-07
3.6189e-07
3.34618e-08
2.09313e-07
-2.97747e-07
-1.23147e-08
-1.07282e-06
-2.66637e-06
-8.09883e-09
1.2948e-07
-1.78147e-08
1.42871e-07
-2.75929e-08
1.50911e-07
-3.70823e-08
1.62641e-07
-4.52177e-08
1.77345e-07
-5.07293e-08
1.951e-07
-5.21022e-08
2.16064e-07
-4.54945e-08
2.37748e-07
-3.27974e-08
2.67077e-07
-4.57022e-09
2.83999e-07
3.42457e-08
3.18492e-07
9.28514e-08
3.17236e-07
1.55512e-07
3.44792e-07
2.33439e-07
2.88839e-07
2.81887e-07
3.02579e-07
3.1832e-07
1.49982e-07
2.67336e-07
8.44453e-08
1.95564e-07
-2.25975e-07
2.50262e-08
-9.02283e-07
-2.64134e-06
-3.8833e-09
1.33363e-07
-9.85269e-09
1.4884e-07
-1.61219e-08
1.5718e-07
-2.23334e-08
1.68853e-07
-2.73538e-08
1.82365e-07
-2.95304e-08
1.97277e-07
-2.8936e-08
2.1547e-07
-2.06089e-08
2.29421e-07
-7.83992e-09
2.54308e-07
1.5201e-08
2.60958e-07
4.56202e-08
2.88073e-07
8.87432e-08
2.74113e-07
1.3156e-07
3.01975e-07
1.84481e-07
2.35918e-07
2.1778e-07
2.69281e-07
2.54128e-07
1.13634e-07
2.44971e-07
9.36026e-08
2.22907e-07
-2.03912e-07
1.72385e-07
-8.51761e-07
-2.46896e-06
1.28616e-09
1.32077e-07
-7.19377e-10
1.50846e-07
-3.85563e-09
1.60316e-07
-8.4168e-09
1.73414e-07
-1.18965e-08
1.85845e-07
-1.27727e-08
1.98153e-07
-1.12505e-08
2.13948e-07
-4.12076e-09
2.22291e-07
9.08178e-09
2.41106e-07
2.86442e-08
2.41396e-07
5.35508e-08
2.63167e-07
8.72926e-08
2.40371e-07
1.18406e-07
2.70862e-07
1.57337e-07
1.96987e-07
1.75913e-07
2.50705e-07
1.90753e-07
9.87945e-08
1.54116e-07
1.3024e-07
1.01782e-07
-1.51578e-07
-4.10386e-08
-7.08941e-07
-2.51e-06
6.62491e-09
1.25452e-07
6.87934e-09
1.50591e-07
5.0101e-09
1.62185e-07
2.64174e-09
1.75782e-07
1.03459e-09
1.87452e-07
2.49434e-10
1.98938e-07
3.65551e-09
2.10542e-07
8.44667e-09
2.175e-07
1.88978e-08
2.30655e-07
3.2557e-08
2.27737e-07
5.06789e-08
2.45045e-07
7.12926e-08
2.19757e-07
9.23425e-08
2.49812e-07
1.11238e-07
1.78091e-07
1.22877e-07
2.39066e-07
1.31773e-07
8.98981e-08
1.06088e-07
1.55925e-07
8.07257e-08
-1.26215e-07
-1.63389e-08
-6.11876e-07
-2.52634e-06
1.84968e-08
1.06955e-07
2.57974e-08
1.43291e-07
2.64287e-08
1.61554e-07
1.9899e-08
1.82312e-07
1.43201e-08
1.93031e-07
9.06771e-09
2.0419e-07
9.3142e-09
2.10295e-07
1.24216e-08
2.14393e-07
2.23523e-08
2.20724e-07
3.46504e-08
2.15439e-07
5.24991e-08
2.27196e-07
7.19308e-08
2.00325e-07
9.29371e-08
2.28806e-07
1.12238e-07
1.5879e-07
1.24149e-07
2.27154e-07
1.17955e-07
9.60928e-08
9.96968e-08
1.74183e-07
5.61664e-08
-8.2685e-08
2.08895e-08
-5.76599e-07
-2.50545e-06
2.94719e-08
7.74831e-08
2.3975e-08
1.48788e-07
2.04003e-08
1.65129e-07
1.93335e-08
1.83379e-07
1.85662e-08
1.93798e-07
2.01406e-08
2.02616e-07
2.18172e-08
2.08619e-07
2.34936e-08
2.12716e-07
2.94288e-08
2.14789e-07
3.3925e-08
2.10942e-07
4.47975e-08
2.16323e-07
4.81391e-08
1.96984e-07
6.19875e-08
2.14957e-07
5.3638e-08
1.6714e-07
6.85783e-08
2.12214e-07
4.80077e-08
1.16663e-07
5.70951e-08
1.65096e-07
3.01216e-08
-5.57115e-08
1.24452e-08
-5.58923e-07
-2.493e-06
6.79059e-08
9.57717e-09
9.69105e-08
1.19783e-07
9.14482e-08
1.70591e-07
6.00496e-08
2.14777e-07
3.791e-08
2.15938e-07
1.67117e-08
2.23814e-07
1.0115e-08
2.15215e-07
8.32468e-09
2.14507e-07
1.7122e-08
2.05991e-07
2.37145e-08
2.0435e-07
4.16546e-08
1.98383e-07
5.16461e-08
1.86992e-07
7.7358e-08
1.89245e-07
8.5596e-08
1.58902e-07
1.10412e-07
1.87398e-07
9.51417e-08
1.31934e-07
8.84836e-08
1.71754e-07
-1.35489e-08
4.6321e-08
-3.49958e-08
-5.37476e-07
-2.528e-06
1.1736e-07
-1.07782e-07
4.30608e-08
1.94082e-07
2.62105e-08
1.87441e-07
3.79622e-08
2.03026e-07
3.99306e-08
2.13969e-07
4.25881e-08
2.21157e-07
4.00931e-08
2.1771e-07
3.57704e-08
2.18829e-07
3.73816e-08
2.0438e-07
3.45373e-08
2.07194e-07
4.0624e-08
1.92297e-07
3.2297e-08
1.95319e-07
3.96362e-08
1.81906e-07
9.69878e-09
1.88839e-07
1.68628e-08
1.80234e-07
-5.19632e-08
2.0076e-07
2.17339e-08
9.80565e-08
4.3788e-09
6.36761e-08
1.0279e-09
-5.34125e-07
-2.52697e-06
2.56621e-07
-3.64403e-07
2.26503e-07
2.242e-07
1.47024e-07
2.6692e-07
1.91764e-08
3.30873e-07
-3.44625e-08
2.67608e-07
-5.57003e-08
2.42394e-07
-5.0129e-08
2.12139e-07
-3.99103e-08
2.08611e-07
-2.45086e-08
1.88979e-07
-1.54069e-08
1.98092e-07
6.97507e-09
1.69915e-07
9.25601e-09
1.93038e-07
4.7788e-08
1.43374e-07
3.31669e-08
2.0346e-07
1.15087e-07
9.83132e-08
1.12531e-07
2.03316e-07
1.03555e-07
1.07033e-07
-1.22929e-08
1.79523e-07
-2.37698e-08
-5.22648e-07
-2.55074e-06
2.58185e-07
-6.22588e-07
2.35973e-07
2.46412e-07
3.11816e-07
1.91078e-07
3.09757e-07
3.32932e-07
2.61415e-07
3.1595e-07
1.98217e-07
3.05592e-07
1.62278e-07
2.48078e-07
1.31639e-07
2.3925e-07
1.16327e-07
2.04291e-07
1.02041e-07
2.12378e-07
1.02531e-07
1.69425e-07
9.01501e-08
2.0542e-07
1.04137e-07
1.29387e-07
7.65158e-08
2.31082e-07
1.27883e-08
1.62041e-07
-6.40702e-08
2.80175e-07
6.38061e-08
-2.08435e-08
3.20697e-08
2.1126e-07
4.49948e-08
-5.35573e-07
-2.50574e-06
-1.42692e-07
-4.79897e-07
-4.75681e-07
5.79402e-07
-4.70888e-07
1.86285e-07
-3.92943e-07
2.54986e-07
-3.89181e-07
3.12189e-07
-3.27715e-07
2.44126e-07
-3.07805e-07
2.28168e-07
-2.73014e-07
2.04459e-07
-2.4747e-07
1.78746e-07
-2.20787e-07
1.85695e-07
-1.95469e-07
1.44107e-07
-1.72358e-07
1.82309e-07
-1.5447e-07
1.11499e-07
-1.72297e-07
2.48908e-07
-6.36823e-08
5.34261e-08
-1.56697e-07
3.7319e-07
1.0249e-07
-2.80031e-07
1.84142e-07
1.29608e-07
4.79408e-08
-3.99372e-07
-2.4578e-06
-1.9665e-08
-4.60232e-07
4.0122e-07
1.58517e-07
2.93494e-07
2.94011e-07
3.74706e-07
1.73774e-07
4.42495e-07
2.444e-07
5.08984e-07
1.77636e-07
5.6656e-07
1.70593e-07
5.94688e-07
1.76331e-07
6.34939e-07
1.38495e-07
6.16444e-07
2.0419e-07
6.18159e-07
1.42391e-07
5.74809e-07
2.25659e-07
5.62469e-07
1.23839e-07
5.16511e-07
2.94866e-07
6.12256e-07
-4.23186e-08
5.04631e-07
4.80815e-07
3.03097e-07
-7.84973e-08
1.88101e-07
2.44604e-07
2.54294e-07
-4.65565e-07
-2.20351e-06
-8.09449e-07
3.49218e-07
-9.30185e-07
2.79252e-07
-8.98781e-07
2.62607e-07
-8.83249e-07
1.58242e-07
-8.24295e-07
1.85446e-07
-7.92903e-07
1.46245e-07
-7.62371e-07
1.4006e-07
-7.13928e-07
1.27888e-07
-6.79036e-07
1.03603e-07
-6.12637e-07
1.37791e-07
-5.70694e-07
1.00449e-07
-4.70686e-07
1.25651e-07
-4.18404e-07
7.15574e-08
-2.28873e-07
1.05335e-07
-3.19459e-07
4.82676e-08
-1.13473e-08
1.72704e-07
-4.62043e-08
-4.36402e-08
2.17185e-07
-1.8785e-08
6.65827e-07
-9.14207e-07
-1.53768e-06
3.49218e-07
6.28469e-07
8.91077e-07
1.04932e-06
1.23476e-06
1.38101e-06
1.52107e-06
1.64896e-06
1.75256e-06
1.89035e-06
1.9908e-06
2.11645e-06
2.18801e-06
2.29334e-06
2.34161e-06
2.51431e-06
2.47067e-06
2.45189e-06
1.53768e-06
)
;

boundaryField
{
    movingWall
    {
        type            calculated;
        value           uniform 0;
    }
    fixedWalls
    {
        type            calculated;
        value           uniform 0;
    }
    frontAndBack
    {
        type            empty;
        value           nonuniform 0();
    }
}


// ************************************************************************* //
