/*--------------------------------*- C++ -*----------------------------------*\
| =========                 |                                                 |
| \\      /  F ield         | OpenFOAM: The Open Source CFD Toolbox           |
|  \\    /   O peration     | Version:  5.x                                   |
|   \\  /    A nd           | Web:      www.OpenFOAM.org                      |
|    \\/     M anipulation  |                                                 |
\*---------------------------------------------------------------------------*/
FoamFile
{
    version     2.0;
    format      ascii;
    class       volScalarField;
    location    "2.7";
    object      p;
}
// * * * * * * * * * * * * * * * * * * * * * * * * * * * * * * * * * * * * * //

dimensions      [0 2 -2 0 0 0 0];

internalField   nonuniform List<scalar> 
400
(
3.46e-09
4.51415e-07
1.39681e-06
2.85596e-06
4.86675e-06
7.47592e-06
1.07368e-05
1.47053e-05
1.94342e-05
2.49646e-05
3.13148e-05
3.84649e-05
4.634e-05
5.48211e-05
6.36265e-05
7.23731e-05
8.05514e-05
8.75449e-05
9.27084e-05
9.54108e-05
-4.95306e-07
-6.22191e-08
8.57933e-07
2.28131e-06
4.24767e-06
6.80666e-06
1.00159e-05
1.39372e-05
1.86314e-05
2.41506e-05
3.05269e-05
3.77557e-05
4.57676e-05
5.44958e-05
6.36489e-05
7.28545e-05
8.15731e-05
8.91267e-05
9.47824e-05
9.77867e-05
-1.52758e-06
-1.12152e-06
-2.51979e-07
1.09845e-06
2.9735e-06
5.42864e-06
8.52996e-06
1.23511e-05
1.6969e-05
2.24576e-05
2.88783e-05
3.62677e-05
4.4627e-05
5.3778e-05
6.36212e-05
7.3763e-05
8.3622e-05
9.24e-05
9.91587e-05
0.000102874
-3.06212e-06
-2.69749e-06
-1.90676e-06
-6.70659e-07
1.06038e-06
3.3496e-06
6.27441e-06
9.92476e-06
1.44004e-05
1.98061e-05
2.62443e-05
3.38009e-05
4.25223e-05
5.23718e-05
6.32678e-05
7.48673e-05
8.65691e-05
9.74132e-05
0.00010611
0.000111192
-5.06094e-06
-4.75408e-06
-4.07401e-06
-2.99958e-06
-1.47432e-06
5.73795e-07
3.23515e-06
6.61862e-06
1.08515e-05
1.6078e-05
2.24538e-05
3.01355e-05
3.92585e-05
4.99109e-05
6.21671e-05
7.57598e-05
9.01332e-05
0.000104192
0.000116087
0.000123755
-7.47007e-06
-7.23971e-06
-6.70665e-06
-5.84822e-06
-4.60067e-06
-2.88343e-06
-5.93584e-07
2.3966e-06
6.2433e-06
1.11342e-05
1.72899e-05
2.4959e-05
3.43958e-05
4.57952e-05
5.96471e-05
7.5715e-05
9.36991e-05
0.000112522
0.000129597
0.000142265
-1.02172e-05
-1.0085e-05
-9.7402e-06
-9.15934e-06
-8.27161e-06
-6.98974e-06
-5.20128e-06
-2.76336e-06
5.05149e-07
4.83322e-06
1.05089e-05
1.78918e-05
2.74283e-05
3.96889e-05
5.47467e-05
7.34945e-05
9.60177e-05
0.000121567
0.000146917
0.000169533
-1.3209e-05
-1.32002e-05
-1.30903e-05
-1.28554e-05
-1.2418e-05
-1.16881e-05
-1.05495e-05
-8.85255e-06
-6.40184e-06
-2.9399e-06
1.87387e-06
8.49034e-06
1.75021e-05
2.96561e-05
4.57966e-05
6.71025e-05
9.47292e-05
0.000129067
0.000166986
0.000209824
-1.63263e-05
-1.64737e-05
-1.66508e-05
-1.68363e-05
-1.69444e-05
-1.68893e-05
-1.65596e-05
-1.58122e-05
-1.44556e-05
-1.22285e-05
-8.76974e-06
-3.57715e-06
4.05394e-06
1.5121e-05
3.10338e-05
5.32505e-05
8.5306e-05
0.000129521
0.000184849
0.000267908
-1.9423e-05
-1.97693e-05
-2.02926e-05
-2.0978e-05
-2.17271e-05
-2.24664e-05
-2.31019e-05
-2.35139e-05
-2.35399e-05
-2.29492e-05
-2.14091e-05
-1.84364e-05
-1.33183e-05
-4.96854e-06
8.32155e-06
2.93562e-05
6.18195e-05
0.000113142
0.000181718
0.000334524
-2.2296e-05
-2.29457e-05
-2.38714e-05
-2.51567e-05
-2.66245e-05
-2.82613e-05
-2.99941e-05
-3.17496e-05
-3.34234e-05
-3.48587e-05
-3.58164e-05
-3.59416e-05
-3.47055e-05
-3.12758e-05
-2.43151e-05
-1.18182e-05
1.20437e-05
5.77249e-05
8.57013e-05
0.000333411
-2.4763e-05
-2.57653e-05
-2.71796e-05
-2.91121e-05
-3.14065e-05
-3.40332e-05
-3.69727e-05
-4.02102e-05
-4.37338e-05
-4.74949e-05
-5.13969e-05
-5.53076e-05
-5.90711e-05
-6.24633e-05
-6.5247e-05
-6.85676e-05
-7.60192e-05
-5.38654e-05
-0.000194512
0.000114109
-2.63179e-05
-2.87536e-05
-3.02915e-05
-3.37429e-05
-3.6491e-05
-4.00669e-05
-4.40126e-05
-4.86708e-05
-5.41014e-05
-6.03913e-05
-6.76164e-05
-7.59487e-05
-8.5743e-05
-9.77315e-05
-0.000112921
-0.000134148
-0.000193607
-0.000156379
-0.000482778
-0.000175841
-2.70249e-05
-2.92762e-05
-3.20361e-05
-3.47792e-05
-3.88119e-05
-4.3394e-05
-4.90482e-05
-5.56812e-05
-6.33777e-05
-7.22682e-05
-8.26704e-05
-9.49836e-05
-0.000110049
-0.000129214
-0.00015535
-0.000180282
-0.000268645
-0.000221926
-0.000447188
-0.000286037
-2.39718e-05
-3.2104e-05
-3.5315e-05
-4.33955e-05
-4.63456e-05
-5.29285e-05
-5.81608e-05
-6.54951e-05
-7.40786e-05
-8.48136e-05
-9.78359e-05
-0.000113948
-0.000133881
-0.000158422
-0.000197952
-0.000226083
-0.000327089
-0.000339742
-0.000493272
-0.000409696
-2.44641e-05
-3.3623e-05
-3.55345e-05
-3.82091e-05
-4.26917e-05
-4.75753e-05
-5.51358e-05
-6.46029e-05
-7.60927e-05
-8.95601e-05
-0.000106019
-0.000124813
-0.00014882
-0.000174743
-0.000219506
-0.000262092
-0.000363255
-0.000441176
-0.0006313
-0.000550623
2.95499e-06
-2.25218e-05
-3.99932e-05
-5.30641e-05
-5.57944e-05
-6.52022e-05
-6.80486e-05
-7.97058e-05
-8.84487e-05
-0.000103165
-0.000119158
-0.000139672
-0.000166938
-0.000187656
-0.000240129
-0.00028973
-0.000376291
-0.000506169
-0.000673834
-0.000469071
-1.63616e-05
-6.56213e-05
-5.15655e-05
-4.45875e-05
-4.105e-05
-4.47438e-05
-5.13233e-05
-6.37294e-05
-7.82912e-05
-9.35902e-05
-0.000116267
-0.000136441
-0.000163985
-0.000196329
-0.000231123
-0.000287037
-0.000332056
-0.000444738
-0.000507582
-0.000113006
3.23991e-05
-5.00166e-05
-5.75484e-05
-5.97137e-05
-5.1664e-05
-7.20237e-05
-5.94941e-05
-8.94506e-05
-9.18419e-05
-0.000108431
-0.000133574
-0.00014729
-0.000180758
-0.00020157
-0.000224935
-0.000304313
-0.000290484
-0.000310266
-0.000360408
0.000455871
-0.000108705
-2.5282e-05
-1.20775e-05
-1.49641e-05
-2.55905e-05
-3.79678e-05
-4.10954e-05
-5.96424e-05
-7.81212e-05
-8.69763e-05
-0.000117774
-0.000139493
-0.000148758
-0.000196692
-0.000206709
-0.000227694
-0.00020228
6.15529e-05
0.000497142
0.00192174
)
;

boundaryField
{
    movingWall
    {
        type            zeroGradient;
    }
    fixedWalls
    {
        type            zeroGradient;
    }
    frontAndBack
    {
        type            empty;
    }
}


// ************************************************************************* //
