/*--------------------------------*- C++ -*----------------------------------*\
| =========                 |                                                 |
| \\      /  F ield         | OpenFOAM: The Open Source CFD Toolbox           |
|  \\    /   O peration     | Version:  5.x                                   |
|   \\  /    A nd           | Web:      www.OpenFOAM.org                      |
|    \\/     M anipulation  |                                                 |
\*---------------------------------------------------------------------------*/
FoamFile
{
    version     2.0;
    format      ascii;
    class       volScalarField;
    location    "15.7";
    object      p;
}
// * * * * * * * * * * * * * * * * * * * * * * * * * * * * * * * * * * * * * //

dimensions      [0 2 -2 0 0 0 0];

internalField   nonuniform List<scalar> 
400
(
-9.47923e-10
-0.000478637
-0.000832842
-0.00106191
-0.00116351
-0.00123458
-0.00126577
-0.00129741
-0.00132601
-0.00135063
-0.00136281
-0.00136051
-0.0013532
-0.00133619
-0.00131755
-0.00123246
-0.00103617
-0.000695699
-0.000402067
0.000891669
-0.0005263
-0.000854627
-0.00106062
-0.0011811
-0.00121732
-0.00125373
-0.00128622
-0.00130032
-0.00133774
-0.00135396
-0.00137525
-0.00138314
-0.00137016
-0.00136702
-0.00134816
-0.0013345
-0.00129366
-0.00107938
-0.00104677
-0.00010344
-0.000849006
-0.00109781
-0.00117439
-0.00123703
-0.00125061
-0.00127136
-0.00129608
-0.00130855
-0.00133663
-0.00134783
-0.00136448
-0.00136178
-0.00136553
-0.00133989
-0.00135284
-0.00128454
-0.0012958
-0.0011699
-0.00106846
-0.000692021
-0.0010613
-0.00119577
-0.00122047
-0.0012461
-0.00125849
-0.00127657
-0.00129951
-0.00131637
-0.00133793
-0.00135064
-0.00136153
-0.00136022
-0.00136414
-0.00135006
-0.0013561
-0.00133368
-0.00131604
-0.0012294
-0.00129073
-0.00106854
-0.00115756
-0.0012317
-0.00123765
-0.00125694
-0.00126922
-0.00128803
-0.00130661
-0.00132307
-0.00134457
-0.0013503
-0.00136664
-0.00135701
-0.00136473
-0.00135247
-0.00135499
-0.00131923
-0.00133032
-0.00129044
-0.00125463
-0.00124032
-0.00121056
-0.0012407
-0.00125858
-0.00126776
-0.00128187
-0.00129853
-0.00131739
-0.00133413
-0.00135382
-0.00136093
-0.00136918
-0.00135864
-0.00136474
-0.00135617
-0.00136938
-0.00135004
-0.00136852
-0.00133616
-0.0013613
-0.00134526
-0.00124063
-0.00126536
-0.00125832
-0.00128208
-0.00128439
-0.00130709
-0.00132401
-0.00134345
-0.00137213
-0.00137975
-0.00138947
-0.00135596
-0.00136687
-0.00137094
-0.00137435
-0.00136714
-0.00138435
-0.00137067
-0.00135074
-0.0013764
-0.00124821
-0.00126819
-0.00126793
-0.0012795
-0.00129606
-0.0013143
-0.0013373
-0.00136096
-0.00138726
-0.00140204
-0.0014112
-0.00139076
-0.001369
-0.00136624
-0.00137822
-0.00137431
-0.00139726
-0.00140279
-0.00140399
-0.00140302
-0.00126998
-0.00128695
-0.00128489
-0.0012995
-0.00130431
-0.00131856
-0.00134582
-0.0013799
-0.00143494
-0.00145878
-0.00144383
-0.00140518
-0.00138434
-0.00140005
-0.00143213
-0.00142122
-0.00146453
-0.00142125
-0.00144241
-0.00136146
-0.00127967
-0.00129432
-0.00128192
-0.00128888
-0.00130092
-0.00131627
-0.00134358
-0.00138779
-0.00145206
-0.00149768
-0.00148887
-0.00147472
-0.00141586
-0.00135119
-0.00141349
-0.00136314
-0.00142339
-0.00136495
-0.00142195
-0.0013458
-0.00129444
-0.0013146
-0.00130607
-0.00131585
-0.00133245
-0.00133692
-0.00137951
-0.001452
-0.0015208
-0.00151668
-0.00150188
-0.00150715
-0.00145596
-0.00141065
-0.00145417
-0.00144224
-0.00145453
-0.00138134
-0.00145033
-0.00138081
-0.00130362
-0.0012929
-0.00129674
-0.00130262
-0.00133199
-0.00132685
-0.0014231
-0.00152984
-0.00166144
-0.00161777
-0.00154917
-0.00150716
-0.00147132
-0.00140454
-0.00143085
-0.00141685
-0.00145413
-0.00136983
-0.00148285
-0.00139921
-0.00127291
-0.00129151
-0.00129204
-0.00130762
-0.00133183
-0.00134731
-0.00149976
-0.00162425
-0.00183157
-0.00174511
-0.00164042
-0.00166635
-0.00158286
-0.00139839
-0.00152304
-0.00139836
-0.00150393
-0.00140776
-0.00149201
-0.00135666
-0.00126635
-0.00129141
-0.00127764
-0.00127589
-0.00131585
-0.00132085
-0.00146775
-0.00162485
-0.0018275
-0.00178494
-0.00168332
-0.00174721
-0.00140813
-0.00137744
-0.00141523
-0.00134701
-0.00145947
-0.00127987
-0.00141351
-0.00127764
-0.0012139
-0.0012368
-0.00124391
-0.00124152
-0.00126702
-0.00125824
-0.0014085
-0.00151323
-0.00173054
-0.00173923
-0.00167428
-0.00167161
-0.00137282
-0.00139334
-0.00146331
-0.00134248
-0.00144538
-0.00133149
-0.00132908
-0.00123565
-0.00115784
-0.00120499
-0.00123705
-0.00121197
-0.00125851
-0.00122486
-0.00133208
-0.00140833
-0.00149763
-0.0015858
-0.00158889
-0.00156698
-0.0014516
-0.00152521
-0.00145906
-0.00123542
-0.00125221
-0.00121582
-0.00121004
-0.00122774
-0.0010579
-0.00114854
-0.0012084
-0.00119805
-0.00122932
-0.00121352
-0.00126541
-0.00131831
-0.00139083
-0.00147803
-0.00154292
-0.00132132
-0.00133895
-0.0017405
-0.00144985
-0.00137116
-0.00140057
-0.00133897
-0.00135371
-0.00114539
-0.000880405
-0.00104726
-0.00114093
-0.0011768
-0.00119543
-0.0012176
-0.00125069
-0.00127464
-0.00134686
-0.00150435
-0.00173567
-0.00170509
-0.00152045
-0.00139165
-0.0013001
-0.00140917
-0.00129539
-0.00114197
-0.000951068
-0.000703044
-0.000618856
-0.000854723
-0.00107838
-0.00110626
-0.00113931
-0.00114563
-0.00118804
-0.00123028
-0.00136066
-0.00168757
-0.0020882
-0.00175981
-0.00145826
-0.00120484
-0.00122529
-0.00140958
-0.00113877
-0.00144219
-0.00109151
-0.00017931
-0.000319839
-0.000576756
-0.000931612
-0.00111229
-0.00115216
-0.00119362
-0.0012219
-0.00136363
-0.00151587
-0.00157919
-0.00150462
-0.0013432
-0.00122821
-0.00121128
-0.00120022
-0.00126166
-0.00116513
-0.000833396
-0.000175428
0.00175698
)
;

boundaryField
{
    movingWall
    {
        type            zeroGradient;
    }
    fixedWalls
    {
        type            zeroGradient;
    }
    frontAndBack
    {
        type            empty;
    }
}


// ************************************************************************* //
