/*--------------------------------*- C++ -*----------------------------------*\
| =========                 |                                                 |
| \\      /  F ield         | OpenFOAM: The Open Source CFD Toolbox           |
|  \\    /   O peration     | Version:  5.x                                   |
|   \\  /    A nd           | Web:      www.OpenFOAM.org                      |
|    \\/     M anipulation  |                                                 |
\*---------------------------------------------------------------------------*/
FoamFile
{
    version     2.0;
    format      ascii;
    class       surfaceScalarField;
    location    "15.7";
    object      phi;
}
// * * * * * * * * * * * * * * * * * * * * * * * * * * * * * * * * * * * * * //

dimensions      [0 3 -1 0 0 0 0];

internalField   nonuniform List<scalar> 
760
(
-1.04853e-06
1.04853e-06
-1.79813e-06
7.49603e-07
-2.11395e-06
3.15819e-07
-2.35111e-06
2.37161e-07
-2.41224e-06
6.11319e-08
-2.52302e-06
1.10779e-07
-2.57378e-06
5.07562e-08
-2.64493e-06
7.11571e-08
-2.7194e-06
7.44626e-08
-2.7684e-06
4.90015e-08
-2.83262e-06
6.42173e-08
-2.85207e-06
1.94525e-08
-2.86948e-06
1.74141e-08
-2.84009e-06
-2.9393e-08
-2.82587e-06
-1.42173e-08
-2.74391e-06
-8.19647e-08
-2.64535e-06
-9.8553e-08
-2.19344e-06
-4.51914e-07
-1.50963e-06
-6.83815e-07
-1.50963e-06
-6.05628e-07
1.65416e-06
-9.46387e-07
1.09036e-06
-1.07713e-06
4.46566e-07
-1.08233e-06
2.42356e-07
-1.09483e-06
7.36318e-08
-1.12073e-06
1.36679e-07
-1.12734e-06
5.73692e-08
-1.15983e-06
1.03645e-07
-1.16063e-06
7.52635e-08
-1.1779e-06
6.62682e-08
-1.1649e-06
5.12177e-08
-1.15253e-06
7.08181e-09
-1.16012e-06
2.50055e-08
-1.17892e-06
-1.0595e-08
-1.2433e-06
5.01638e-08
-1.25617e-06
-6.90912e-08
-1.22342e-06
-1.31309e-07
-1.25503e-06
-4.20303e-07
-1.022e-06
-9.16838e-07
-2.53163e-06
-3.10106e-07
1.96426e-06
-3.92685e-07
1.17294e-06
-3.31643e-07
3.85525e-07
-2.94381e-07
2.05093e-07
-3.05441e-07
8.46924e-08
-2.9095e-07
1.22188e-07
-3.27613e-07
9.40317e-08
-3.38559e-07
1.14591e-07
-3.6632e-07
1.03025e-07
-4.03578e-07
1.03525e-07
-4.52493e-07
1.00133e-07
-4.95764e-07
5.03529e-08
-5.18191e-07
4.74326e-08
-5.34276e-07
5.49016e-09
-4.71835e-07
-1.22776e-08
-4.61648e-07
-7.92782e-08
-2.89458e-07
-3.03499e-07
-1.75861e-07
-5.33901e-07
-3.116e-07
-7.81098e-07
-2.84323e-06
-1.38959e-07
2.10322e-06
-1.52822e-07
1.1868e-06
-8.63864e-08
3.1909e-07
-7.89006e-08
1.97607e-07
-1.37333e-07
1.43125e-07
-1.70255e-07
1.5511e-07
-2.06986e-07
1.30763e-07
-2.24689e-07
1.32294e-07
-2.26049e-07
1.04385e-07
-2.30853e-07
1.08329e-07
-2.13489e-07
8.27694e-08
-2.55282e-07
9.21457e-08
-2.34919e-07
2.70697e-08
-2.55194e-07
2.57656e-08
-2.06935e-07
-6.05369e-08
-1.98497e-07
-8.77164e-08
-3.04221e-07
-1.97775e-07
-3.43387e-07
-4.94735e-07
-2.58135e-07
-8.6635e-07
-3.10136e-06
-6.76857e-08
2.17091e-06
-5.66752e-08
1.17579e-06
-6.79301e-08
3.30345e-07
-7.60178e-08
2.05695e-07
-1.1271e-07
1.79816e-07
-1.48639e-07
1.9104e-07
-1.69638e-07
1.51762e-07
-1.8059e-07
1.43246e-07
-1.70052e-07
9.38469e-08
-1.32864e-07
7.1141e-08
-1.09269e-07
5.9174e-08
-1.48929e-07
1.31806e-07
-1.25669e-07
3.80966e-09
-1.7139e-07
7.14872e-08
-2.4496e-07
1.30325e-08
-2.62327e-07
-7.03491e-08
-1.77943e-07
-2.82159e-07
-7.69241e-08
-5.95753e-07
-4.88951e-08
-8.94379e-07
-3.15026e-06
-1.92225e-08
2.19013e-06
-5.23685e-08
1.20894e-06
-7.19724e-08
3.49949e-07
-1.28041e-07
2.61763e-07
-1.69205e-07
2.2098e-07
-1.96416e-07
2.1825e-07
-2.21754e-07
1.77101e-07
-2.21798e-07
1.4329e-07
-2.0756e-07
7.9608e-08
-1.56511e-07
2.0092e-08
-1.30384e-07
3.30472e-08
-1.75462e-07
1.76884e-07
-1.5054e-07
-2.11128e-08
-1.72717e-07
9.3664e-08
-1.90971e-07
3.12864e-08
-1.76103e-07
-8.52169e-08
-2.58308e-07
-1.99954e-07
-2.30565e-07
-6.23496e-07
-1.33541e-07
-9.91404e-07
-3.2838e-06
-1.29179e-08
2.20305e-06
5.57868e-09
1.19044e-06
-4.82913e-08
4.03819e-07
-7.85019e-08
2.91974e-07
-1.03173e-07
2.45651e-07
-1.55328e-07
2.70406e-07
-2.06672e-07
2.28445e-07
-1.86757e-07
1.23375e-07
-7.21207e-08
-3.50281e-08
-3.42739e-08
-1.77547e-08
-1.21009e-07
1.19782e-07
-1.90757e-07
2.46633e-07
-1.18609e-07
-9.32607e-08
-1.50606e-07
1.25661e-07
-1.26334e-07
7.01382e-09
-1.0686e-07
-1.04691e-07
-1.51536e-07
-1.55277e-07
-3.21046e-08
-7.42928e-07
1.9391e-08
-1.0429e-06
-3.26441e-06
-1.99058e-08
2.22295e-06
-6.45092e-08
1.23504e-06
-7.69556e-08
4.16265e-07
-1.33373e-07
3.48391e-07
-2.20864e-07
3.33142e-07
-2.36848e-07
2.8639e-07
-2.418e-07
2.33397e-07
-2.04667e-07
8.62417e-08
-1.09691e-07
-1.30003e-07
-1.11999e-07
-1.54466e-08
-3.20162e-07
3.27944e-07
-4.34291e-07
3.60762e-07
-3.29561e-07
-1.97991e-07
-3.00352e-07
9.64519e-08
-3.57204e-07
6.38665e-08
-3.506e-07
-1.11296e-07
-2.12453e-07
-2.93424e-07
-1.5763e-07
-7.9775e-07
-9.02539e-08
-1.11028e-06
-3.35466e-06
-8.89037e-09
2.23184e-06
-1.40532e-08
1.24021e-06
-5.38703e-08
4.56082e-07
-7.65333e-08
3.71054e-07
-1.71328e-07
4.27937e-07
-2.21169e-07
3.3623e-07
-1.76897e-07
1.89125e-07
-1.35174e-07
4.45192e-08
-1.92401e-07
-7.27768e-08
-3.11985e-07
1.04138e-07
-4.14808e-07
4.30767e-07
-3.66421e-07
3.12375e-07
-1.76951e-07
-3.87462e-07
-1.97923e-07
1.17425e-07
-2.00128e-07
6.60713e-08
-8.46908e-08
-2.26733e-07
2.63109e-08
-4.04426e-07
3.05653e-08
-8.02005e-07
-1.2142e-08
-1.06757e-06
-3.3668e-06
-2.13987e-08
2.25324e-06
-5.79707e-08
1.27678e-06
-4.0431e-08
4.38543e-07
-1.54788e-07
4.85411e-07
-2.85082e-07
5.58232e-07
-3.95949e-07
4.47097e-07
-4.74263e-07
2.67439e-07
-5.34781e-07
1.05037e-07
-6.30266e-07
2.27079e-08
-6.04874e-07
7.87458e-08
-6.52129e-07
4.78022e-07
-5.57629e-07
2.17876e-07
-2.94431e-07
-6.5066e-07
-2.06899e-07
2.98924e-08
-9.10595e-08
-4.97679e-08
-8.32946e-08
-2.34498e-07
7.77443e-08
-5.65465e-07
1.18632e-07
-8.42892e-07
-6.29673e-10
-9.48307e-07
-3.36743e-06
-1.92421e-08
2.27248e-06
5.26371e-09
1.25227e-06
-1.19702e-07
5.63508e-07
-2.96631e-07
6.6234e-07
-3.2925e-07
5.9085e-07
-3.77351e-07
4.95198e-07
-6.48653e-07
5.38742e-07
-8.43237e-07
2.99621e-07
-8.9421e-07
7.36806e-08
-6.44928e-07
-1.70536e-07
-3.462e-07
1.79294e-07
-1.60239e-07
3.19151e-08
1.09814e-07
-9.20713e-07
1.80641e-07
-4.09353e-08
1.24881e-07
5.99216e-09
-9.07987e-08
-1.88181e-08
-2.86507e-07
-3.69756e-07
-1.86319e-07
-9.43081e-07
-1.40053e-08
-1.12062e-06
-3.38144e-06
2.93082e-08
2.24318e-06
2.19742e-08
1.25961e-06
-6.20025e-08
6.47485e-07
-5.6498e-08
6.56836e-07
3.88332e-09
5.30469e-07
-1.59362e-07
6.58443e-07
-5.06131e-07
8.85511e-07
-7.46086e-07
5.39576e-07
-9.44206e-07
2.71801e-07
-8.79798e-07
-2.34945e-07
-5.00214e-07
-2.00289e-07
-1.3831e-07
-3.29989e-07
8.37555e-09
-1.0674e-06
9.28119e-08
-1.25372e-07
2.54218e-07
-1.55414e-07
3.03613e-07
-6.82126e-08
-2.60198e-08
-4.01236e-08
-1.78058e-07
-7.91043e-07
-2.69773e-08
-1.2717e-06
-3.40842e-06
-6.34016e-09
2.24952e-06
-2.18134e-08
1.27508e-06
3.1123e-08
5.94549e-07
2.36823e-07
4.51135e-07
1.90108e-07
5.77184e-07
5.5708e-08
7.92843e-07
-6.02294e-10
9.41822e-07
-1.60634e-07
6.99608e-07
-2.58815e-07
3.69981e-07
-2.50362e-07
-2.43398e-07
-2.43696e-07
-2.06955e-07
-8.57417e-08
-4.87943e-07
1.34797e-08
-1.16662e-06
1.85333e-08
-1.30425e-07
1.65222e-07
-3.02103e-07
1.57216e-07
-6.02065e-08
6.73528e-08
4.97391e-08
-1.95766e-09
-7.21732e-07
-9.81728e-09
-1.26384e-06
-3.41823e-06
1.02155e-07
2.14736e-06
1.00606e-07
1.27663e-06
1.68479e-07
5.26676e-07
1.89301e-07
4.30313e-07
2.58778e-07
5.07706e-07
4.40083e-07
6.11539e-07
5.12238e-07
8.69667e-07
5.00796e-07
7.11049e-07
4.13765e-07
4.57012e-07
3.6309e-07
-1.92723e-07
2.72592e-07
-1.16457e-07
3.13637e-07
-5.28989e-07
7.30846e-08
-9.26067e-07
-3.59656e-08
-2.13749e-08
-9.24364e-08
-2.45632e-07
-1.68393e-07
1.57504e-08
2.66366e-07
-3.8502e-07
2.14412e-07
-6.69778e-07
5.82326e-08
-1.10766e-06
-3.36e-06
1.57006e-08
2.13166e-06
5.90559e-08
1.23327e-06
7.99838e-08
5.05748e-07
2.54386e-07
2.55911e-07
4.42368e-07
3.19724e-07
7.20382e-07
3.33525e-07
1.00047e-06
5.89579e-07
1.05547e-06
6.56049e-07
1.12608e-06
3.864e-07
1.10857e-06
-1.75208e-07
1.08982e-06
-9.7714e-08
1.10965e-06
-5.48817e-07
1.05994e-06
-8.7635e-07
1.14976e-06
-1.11199e-07
9.7949e-07
-7.53613e-08
9.06113e-07
8.91269e-08
8.11402e-07
-2.90309e-07
2.62619e-07
-1.20995e-07
5.58661e-09
-8.50631e-07
-3.35441e-06
1.17611e-07
2.01405e-06
1.23409e-07
1.22748e-06
1.85448e-07
4.4371e-07
1.5691e-07
2.84449e-07
4.5255e-07
2.40841e-08
7.37604e-07
4.84716e-08
9.78748e-07
3.48434e-07
1.22476e-06
4.10036e-07
1.40246e-06
2.08699e-07
1.37778e-06
-1.50523e-07
1.48048e-06
-2.0042e-07
1.31449e-06
-3.82829e-07
1.01822e-06
-5.80072e-07
9.78783e-07
-7.17663e-08
5.71237e-07
3.32186e-07
1.66889e-07
4.93474e-07
4.91082e-08
-1.72528e-07
-3.9008e-08
-3.28789e-08
8.17538e-08
-9.71393e-07
-3.27266e-06
1.45997e-07
1.86805e-06
1.92052e-07
1.18142e-06
3.3393e-07
3.01832e-07
3.77144e-07
2.41236e-07
3.90531e-07
1.06976e-08
6.84149e-07
-2.45147e-07
8.36659e-07
1.95924e-07
1.16053e-06
8.61682e-08
1.43208e-06
-6.28573e-08
1.56354e-06
-2.81981e-07
1.43984e-06
-7.67204e-08
6.63644e-07
3.93369e-07
-4.20201e-07
5.03773e-07
-6.9535e-07
2.03383e-07
-1.76388e-07
-1.86776e-07
-9.06968e-08
4.07783e-07
3.3914e-07
-6.02364e-07
3.21267e-07
-1.50064e-08
1.23411e-08
-6.62467e-07
-3.26032e-06
3.1907e-07
1.54898e-06
4.86789e-07
1.0137e-06
4.56847e-07
3.31774e-07
6.61503e-07
3.65792e-08
6.5619e-07
1.60101e-08
6.73021e-07
-2.61978e-07
8.79529e-07
-1.0583e-08
9.95952e-07
-3.02557e-08
1.19648e-06
-2.63385e-07
1.29833e-06
-3.83831e-07
1.33359e-06
-1.11983e-07
1.35836e-06
3.68599e-07
1.27214e-06
5.89999e-07
9.56322e-07
5.19197e-07
9.78809e-07
-2.09263e-07
1.00191e-06
3.84682e-07
6.59355e-07
-2.59809e-07
3.04109e-07
3.40239e-07
4.7127e-07
-8.29627e-07
-2.78905e-06
4.56327e-07
1.09266e-06
8.07116e-07
6.62913e-07
8.00968e-07
3.37922e-07
6.55957e-07
1.8159e-07
5.23281e-07
1.48686e-07
1.7055e-07
9.07538e-08
-3.64178e-08
1.96384e-07
-2.50184e-07
1.8351e-07
-6.31911e-07
1.18342e-07
-1.02992e-06
1.41835e-08
-1.15155e-06
9.64675e-09
-7.82283e-07
-6.72649e-10
-2.83898e-07
9.16137e-08
1.83266e-07
5.20331e-08
-1.55306e-07
1.29309e-07
1.61041e-07
6.83348e-08
-4.68831e-08
-5.18848e-08
3.64026e-07
-7.06697e-08
9.82534e-07
-1.44813e-06
-1.80652e-06
1.09266e-06
1.75557e-06
2.09349e-06
2.27508e-06
2.42377e-06
2.51452e-06
2.71091e-06
2.89442e-06
3.01276e-06
3.02694e-06
3.03659e-06
3.03592e-06
3.12753e-06
3.17956e-06
3.30887e-06
3.37721e-06
3.32532e-06
3.25465e-06
1.80652e-06
)
;

boundaryField
{
    movingWall
    {
        type            calculated;
        value           uniform 0;
    }
    fixedWalls
    {
        type            calculated;
        value           uniform 0;
    }
    frontAndBack
    {
        type            empty;
        value           nonuniform 0();
    }
}


// ************************************************************************* //
