/*--------------------------------*- C++ -*----------------------------------*\
| =========                 |                                                 |
| \\      /  F ield         | OpenFOAM: The Open Source CFD Toolbox           |
|  \\    /   O peration     | Version:  5.x                                   |
|   \\  /    A nd           | Web:      www.OpenFOAM.org                      |
|    \\/     M anipulation  |                                                 |
\*---------------------------------------------------------------------------*/
FoamFile
{
    version     2.0;
    format      ascii;
    class       volVectorField;
    location    "15.7";
    object      U;
}
// * * * * * * * * * * * * * * * * * * * * * * * * * * * * * * * * * * * * * //

dimensions      [0 1 -1 0 0 0 0];

internalField   nonuniform List<vector> 
400
(
(-0.0133119 0.00639837 0)
(-0.0321698 0.00649248 0)
(-0.039458 0.00207955 0)
(-0.0448473 0.00259701 0)
(-0.0470911 0.000242373 0)
(-0.0490825 0.00115306 0)
(-0.050699 0.000909968 0)
(-0.0517367 0.000295398 0)
(-0.0539832 0.0015108 0)
(-0.0546097 -0.00030317 0)
(-0.0566642 0.00127186 0)
(-0.0561704 -0.000877985 0)
(-0.0581776 0.00012285 0)
(-0.0566813 -0.00178597 0)
(-0.0587025 -0.00109441 0)
(-0.0559454 -0.00227235 0)
(-0.0549355 -0.00339128 0)
(-0.0478738 -0.00707291 0)
(-0.0465728 -0.0100347 0)
(-0.00552127 -0.0223024 0)
(-0.00862126 0.0316548 0)
(-0.0179415 0.0207377 0)
(-0.0190241 0.00909675 0)
(-0.0236372 0.00596985 0)
(-0.0183702 0.00190303 0)
(-0.0250563 0.00309112 0)
(-0.0203305 0.000948698 0)
(-0.023925 0.00261557 0)
(-0.0230991 0.00129243 0)
(-0.0231523 0.00216259 0)
(-0.0237865 0.00109686 0)
(-0.0235091 0.00148846 0)
(-0.0216532 0.000454062 0)
(-0.0255966 0.000386081 0)
(-0.0212301 0.00040065 0)
(-0.0282096 -0.00164821 0)
(-0.0240739 -0.00155348 0)
(-0.0218782 -0.0134735 0)
(-0.033546 -0.0214835 0)
(-0.00119281 -0.0445734 0)
(-0.00587139 0.0361237 0)
(-0.00814774 0.0229353 0)
(-0.00644618 0.00938553 0)
(-0.00726511 0.00398585 0)
(-0.0039611 0.000956504 0)
(-0.00810597 0.00218834 0)
(-0.00384943 0.00131795 0)
(-0.0088391 0.00141425 0)
(-0.00513385 0.00181921 0)
(-0.00915611 0.000629475 0)
(-0.00740321 0.00111445 0)
(-0.0102657 -0.00110577 0)
(-0.0101491 0.000651559 0)
(-0.00974838 -0.000668088 0)
(-0.0127435 0.00176271 0)
(-0.00489932 -0.000533525 0)
(-0.0149819 -0.00285874 0)
(0.0043619 -0.00186091 0)
(-0.0124062 -0.0112993 0)
(0.00194202 -0.0535457 0)
(-0.00210814 0.0430565 0)
(-0.00427058 0.0253479 0)
(-0.00126035 0.00659504 0)
(-0.00235782 0.0046589 0)
(-0.000625895 0.00264782 0)
(-0.00480406 0.002911 0)
(-0.00220077 0.00258504 0)
(-0.00588563 0.00319119 0)
(-0.00331298 0.00238198 0)
(-0.00559183 0.00336274 0)
(-0.00381123 0.0029963 0)
(-0.00447089 0.00297619 0)
(-0.00609381 0.00129845 0)
(-0.00286964 0.000815977 0)
(-0.00785017 -0.00227824 0)
(-2.30598e-05 -0.0031384 0)
(-0.00846572 -0.00965675 0)
(-0.00256422 -0.0188207 0)
(-0.0128833 -0.0226255 0)
(0.00417043 -0.0596589 0)
(-0.00259404 0.0428697 0)
(-0.000548799 0.0231387 0)
(-0.00141389 0.00656394 0)
(-0.00145968 0.00319189 0)
(-0.0014421 0.0029832 0)
(-0.0031782 0.00314229 0)
(-0.00282882 0.00258521 0)
(-0.003811 0.00220658 0)
(-0.00368493 0.00172746 0)
(-0.00281145 0.00114136 0)
(-0.0028224 0.000171317 0)
(-0.00123791 0.000757241 0)
(-0.00505828 -0.000261758 0)
(0.000329574 0.000266634 0)
(-0.00760922 1.13121e-05 0)
(-0.00154618 6.79291e-05 0)
(-0.00966287 0.00208445 0)
(0.00298854 -0.00135657 0)
(-0.00603421 -0.00939877 0)
(0.00412287 -0.0613369 0)
(0.000227708 0.044495 0)
(-0.00112504 0.0245046 0)
(-0.000900678 0.00625983 0)
(-0.00185904 0.00497204 0)
(-0.00320909 0.00400728 0)
(-0.00362512 0.00443193 0)
(-0.0043509 0.00333848 0)
(-0.00437662 0.00339709 0)
(-0.00476151 0.00213211 0)
(-0.00329301 0.00165509 0)
(-0.00322898 0.00235158 0)
(-0.00167534 0.00453077 0)
(-0.00568885 0.000430253 0)
(6.91318e-06 0.00271538 0)
(-0.00735263 0.000431367 0)
(0.000237006 -0.0031695 0)
(-0.00783904 -0.0138705 0)
(-0.00176104 -0.0223153 0)
(-0.0081189 -0.0285016 0)
(0.00315285 -0.0658559 0)
(-0.00225792 0.0439326 0)
(0.00161464 0.0227955 0)
(-0.0013117 0.00824095 0)
(-0.000854112 0.00519977 0)
(-0.00201912 0.00512766 0)
(-0.00234811 0.00440706 0)
(-0.00371253 0.00394183 0)
(-0.00436664 0.00250605 0)
(-0.00345364 0.000920592 0)
(0.000767014 -0.000873063 0)
(-0.0023166 -0.00112969 0)
(-0.00206261 0.00289759 0)
(-0.00601661 -0.00131288 0)
(0.00142884 0.00079563 0)
(-0.00764808 0.000870951 0)
(0.00288572 -0.000304736 0)
(-0.00749332 0.0061579 0)
(0.00164173 -0.002459 0)
(-0.0027312 -0.00932961 0)
(0.00334032 -0.0635392 0)
(0.000164235 0.0447456 0)
(-0.00108735 0.0259295 0)
(-0.0012931 0.00757172 0)
(-0.00175628 0.00695134 0)
(-0.00370285 0.00443169 0)
(-0.00499065 0.00627052 0)
(-0.00464092 0.00495853 0)
(-0.00491614 0.00228819 0)
(-0.00349799 -0.00215743 0)
(-0.000857053 0.000282692 0)
(-0.00385476 0.00609664 0)
(-0.00850145 0.00645007 0)
(-0.00868212 -0.00225776 0)
(-0.00451274 0.00460428 0)
(-0.00789217 -0.000506496 0)
(-0.00587525 -0.00355271 0)
(-0.00870624 -0.0119485 0)
(0.000299277 -0.0270145 0)
(-0.00633398 -0.0330099 0)
(0.00255932 -0.0690369 0)
(-0.00111246 0.0436223 0)
(0.000673767 0.0225409 0)
(-0.00113398 0.00869582 0)
(-0.00118463 0.00638283 0)
(-0.00170603 0.00893958 0)
(-0.00518861 0.00528466 0)
(-0.00377878 0.00443594 0)
(-0.00307442 0.00103687 0)
(-0.00269742 -0.00344759 0)
(-0.00526733 -0.00105291 0)
(-0.00711159 0.0067455 0)
(-0.00883571 0.00869557 0)
(-0.00579997 -0.00573692 0)
(-0.00155484 -0.00122356 0)
(-0.00683255 0.00266899 0)
(-0.000552548 -0.00146155 0)
(-0.00333049 -0.000770461 0)
(0.00465039 -0.00593626 0)
(-0.0037299 -0.0125267 0)
(0.00346278 -0.0639157 0)
(0.000260069 0.0462045 0)
(-0.00125348 0.0276794 0)
(-0.00083414 0.010172 0)
(-0.000880676 0.00916433 0)
(-0.00544752 0.00877779 0)
(-0.00579427 0.00852438 0)
(-0.00992557 0.0035631 0)
(-0.00885202 0.00098364 0)
(-0.0130171 0.00090355 0)
(-0.0130135 0.00512375 0)
(-0.0103342 0.00999121 0)
(-0.0162273 0.00304144 0)
(-0.0055812 -0.0100594 0)
(-0.00529614 0.00658218 0)
(-0.00397644 0.000389489 0)
(0.000977429 -0.00656183 0)
(-0.00491984 -0.0142108 0)
(0.00865125 -0.0246612 0)
(-0.00469412 -0.0289586 0)
(0.00477355 -0.0690229 0)
(-0.00122602 0.043193 0)
(0.000326195 0.0225554 0)
(-4.00168e-05 0.00665658 0)
(-0.00489837 0.00937492 0)
(-0.00727454 0.0126996 0)
(-0.0053317 0.00873678 0)
(-0.0100869 0.00671564 0)
(-0.0164634 0.00292334 0)
(-0.0183688 6.84018e-05 0)
(-0.0163068 -0.00161711 0)
(-0.00876294 0.00996746 0)
(-0.00584091 0.00586367 0)
(-0.000117293 -0.0165271 0)
(0.00492095 -0.00569322 0)
(0.00161211 -0.00272877 0)
(0.00377869 -0.0038943 0)
(-0.00782055 -0.00941904 0)
(-0.00255552 -0.0101454 0)
(-0.00589321 -0.00881276 0)
(0.00557333 -0.0660409 0)
(0.00107134 0.0481524 0)
(0.000225424 0.0287421 0)
(0.000580371 0.0165663 0)
(-0.00290756 0.0180276 0)
(0.000425117 0.0115828 0)
(-0.00015325 0.0117874 0)
(-0.00674792 0.0150223 0)
(-0.0131471 0.00887213 0)
(-0.0184253 0.00263319 0)
(-0.0176338 -0.00571404 0)
(-0.0168318 -0.00288016 0)
(-0.00291724 -0.00423654 0)
(-0.0028229 -0.0187509 0)
(0.0033166 0.00428212 0)
(-7.24205e-05 0.00311197 0)
(0.0107769 0.0033552 0)
(0.000439966 -0.00454073 0)
(-0.00104073 -0.0265104 0)
(-0.00727315 -0.0357861 0)
(0.00658429 -0.0707214 0)
(-0.00141127 0.0421649 0)
(0.00109278 0.0206583 0)
(-0.00184574 0.00879305 0)
(0.00300036 0.00736875 0)
(0.0065508 0.00913409 0)
(0.00177518 0.0135316 0)
(3.59035e-05 0.0188342 0)
(-4.61839e-06 0.0116196 0)
(-0.00751552 0.00720642 0)
(-0.00164509 -0.00443593 0)
(-0.00754145 -0.00577532 0)
(-0.00326707 -0.0102401 0)
(-0.000233473 -0.0268451 0)
(0.00111484 -0.00951706 0)
(-0.000843116 -0.0103227 0)
(0.00870534 -0.00631702 0)
(-0.00357373 0.0025796 0)
(0.00696196 -0.00694615 0)
(-0.00724021 -0.0164783 0)
(0.00711733 -0.0665853 0)
(0.00159661 0.0461195 0)
(0.00212786 0.0301812 0)
(0.00222555 0.0152011 0)
(0.00479019 0.0112536 0)
(0.00227821 0.0140096 0)
(0.00901782 0.0187749 0)
(0.00751351 0.0200339 0)
(0.0134525 0.0160206 0)
(0.00487299 0.00833882 0)
(0.0129443 -0.00506336 0)
(0.00280203 -0.00267925 0)
(0.00636795 -0.0101614 0)
(0.00828293 -0.0166337 0)
(-0.00595075 0.00466449 0)
(0.0041524 -0.000296605 0)
(-0.0071197 0.00419595 0)
(-0.000875847 -0.000225914 0)
(0.0133073 -0.0196992 0)
(-0.0062922 -0.0326325 0)
(0.00930345 -0.0689852 0)
(-5.36382e-05 0.0413217 0)
(0.000576298 0.0221604 0)
(0.00188353 0.00651494 0)
(0.00155307 0.00589257 0)
(0.00810482 0.00713408 0)
(0.0108726 0.0064807 0)
(0.0162542 0.0151619 0)
(0.0254992 0.0137243 0)
(0.0141208 0.0093842 0)
(0.0327289 -0.00297208 0)
(0.0131921 -0.00222225 0)
(0.0276435 -0.00984987 0)
(0.0204721 -0.0209287 0)
(0.0194079 -0.00534373 0)
(0.0244513 -0.0105425 0)
(0.0175268 -0.00379491 0)
(0.0158895 -0.0164433 0)
(0.0189073 -0.00927419 0)
(-0.00946968 -0.0128712 0)
(0.00983184 -0.065511 0)
(0.00164548 0.0423408 0)
(0.00267716 0.0260785 0)
(0.0019341 0.0129894 0)
(0.00617677 0.00454822 0)
(-0.000593047 0.0050653 0)
(0.0200841 0.00700084 0)
(0.00787449 0.00905042 0)
(0.0321037 0.0130112 0)
(0.0159323 0.00746597 0)
(0.0390749 -0.00329358 0)
(0.0171009 -0.00117823 0)
(0.0416013 -0.0132267 0)
(0.0136641 -0.016433 0)
(0.0244569 0.000617363 0)
(0.0153246 0.00777343 0)
(0.00963357 0.00814786 0)
(-0.00396944 0.00656504 0)
(0.00625473 0.00543788 0)
(-0.00793818 -0.0188327 0)
(0.0112605 -0.0687568 0)
(0.00233566 0.0384475 0)
(0.00291489 0.0225382 0)
(0.00448191 0.00493073 0)
(0.00973454 0.00655096 0)
(0.0045298 -0.00405927 0)
(0.0120422 -0.00498945 0)
(0.0144689 0.00549884 0)
(0.0188067 0.00384428 0)
(0.0270945 0.000398601 0)
(0.0290804 -0.00220211 0)
(0.0305989 -0.00591321 0)
(0.0309176 0.00036209 0)
(-0.00399587 -0.00444388 0)
(-0.0158279 -0.00442735 0)
(-0.00845538 0.00462014 0)
(0.000801903 0.00980465 0)
(-0.00503545 -0.0148972 0)
(0.0196695 -0.00735764 0)
(-0.00818588 -0.0239704 0)
(0.00899658 -0.0665448 0)
(0.00205058 0.0354619 0)
(0.00948123 0.0239588 0)
(0.0102682 0.00747661 0)
(0.00864902 0.00265317 0)
(0.0182572 0.0044393 0)
(0.00765091 -0.0054773 0)
(0.0194267 0.00163164 0)
(0.0167431 -0.000691304 0)
(0.0239864 -0.00286505 0)
(0.022855 -0.00896568 0)
(0.026108 0.00248782 0)
(0.0291774 0.0126212 0)
(0.0273564 0.0223004 0)
(0.0241707 0.0142715 0)
(0.0157255 -0.0112335 0)
(0.0205584 0.00644568 0)
(0.0215068 -0.00762511 0)
(0.00430253 0.00724113 0)
(0.00739262 0.00124673 0)
(0.0131772 -0.0599457 0)
(0.00625139 0.0277684 0)
(0.0104785 0.0161679 0)
(0.0201522 0.00507863 0)
(0.013658 -0.000886017 0)
(0.0118465 -0.00362609 0)
(0.00988658 -0.00399238 0)
(-0.003382 -0.00191148 0)
(0.00215326 -0.000179026 0)
(-0.0115358 -0.00697821 0)
(-0.0150476 -0.0082632 0)
(-0.0302338 -0.00852562 0)
(-0.0116111 0.00106063 0)
(-0.018909 0.00232066 0)
(0.00862795 0.00616875 0)
(-0.00191736 0.00259106 0)
(-0.00567317 0.00827682 0)
(0.0139425 -0.00168428 0)
(-0.0168724 0.00328398 0)
(0.0322267 -0.0395735 0)
(0.0124641 -0.0602376 0)
(0.00836832 0.0186387 0)
(0.0334403 0.0125411 0)
(0.0337066 0.00966842 0)
(0.0516002 0.00762124 0)
(0.0417703 0.00910495 0)
(0.0555164 0.00706847 0)
(0.0475407 0.00899315 0)
(0.0583078 0.00642792 0)
(0.0554693 0.010874 0)
(0.0634728 0.00916577 0)
(0.0598271 0.00967109 0)
(0.0637489 -0.000643713 0)
(0.059122 0.00219259 0)
(0.0641998 -0.00454757 0)
(0.0624987 0.00254333 0)
(0.0663086 -0.00490862 0)
(0.066192 -0.000850539 0)
(0.0637006 -0.00463826 0)
(0.0588458 -0.0107903 0)
(0.0241451 -0.00102955 0)
)
;

boundaryField
{
    movingWall
    {
        type            fixedValue;
        value           uniform (1 0 0);
    }
    fixedWalls
    {
        type            noSlip;
    }
    frontAndBack
    {
        type            empty;
    }
}


// ************************************************************************* //
