/*--------------------------------*- C++ -*----------------------------------*\
| =========                 |                                                 |
| \\      /  F ield         | OpenFOAM: The Open Source CFD Toolbox           |
|  \\    /   O peration     | Version:  5.x                                   |
|   \\  /    A nd           | Web:      www.OpenFOAM.org                      |
|    \\/     M anipulation  |                                                 |
\*---------------------------------------------------------------------------*/
FoamFile
{
    version     2.0;
    format      ascii;
    class       surfaceScalarField;
    location    "13.8";
    object      phi;
}
// * * * * * * * * * * * * * * * * * * * * * * * * * * * * * * * * * * * * * //

dimensions      [0 3 -1 0 0 0 0];

internalField   nonuniform List<scalar> 
760
(
-1.08688e-06
1.08688e-06
-1.7875e-06
7.00624e-07
-2.1212e-06
3.33695e-07
-2.30193e-06
1.80733e-07
-2.33253e-06
3.05988e-08
-2.40512e-06
7.25874e-08
-2.35812e-06
-4.69924e-08
-2.39399e-06
3.58682e-08
-2.35531e-06
-3.86854e-08
-2.38406e-06
2.87535e-08
-2.3958e-06
1.17415e-08
-2.39291e-06
-2.88844e-09
-2.39468e-06
1.76207e-09
-2.33614e-06
-5.85372e-08
-2.3304e-06
-5.74218e-09
-2.23464e-06
-9.57591e-08
-2.16625e-06
-6.83877e-08
-1.83235e-06
-3.33899e-07
-1.19163e-06
-6.40724e-07
-1.19163e-06
-5.90841e-07
1.67772e-06
-9.80868e-07
1.09065e-06
-1.03856e-06
3.91389e-07
-1.04888e-06
1.91047e-07
-1.0651e-06
4.68266e-08
-9.98741e-07
6.22484e-09
-1.03374e-06
-1.19943e-08
-9.86015e-07
-1.18566e-08
-1.01749e-06
-7.21352e-09
-9.94627e-07
5.89422e-09
-9.8987e-07
6.98398e-09
-9.97971e-07
5.21288e-09
-1.01644e-06
2.0234e-08
-1.0226e-06
-5.23776e-08
-1.00209e-06
-2.62555e-08
-9.58392e-07
-1.39456e-07
-9.29625e-07
-9.71552e-08
-9.78331e-07
-2.85193e-07
-9.22115e-07
-6.9694e-07
-2.11374e-06
-3.09193e-07
1.98691e-06
-4.49252e-07
1.23071e-06
-3.97658e-07
3.39795e-07
-3.28106e-07
1.21496e-07
-2.99491e-07
1.82115e-08
-2.93489e-07
2.22331e-10
-2.80801e-07
-2.46822e-08
-3.05037e-07
1.23792e-08
-2.87441e-07
-2.48095e-08
-3.04774e-07
2.32276e-08
-2.84889e-07
-1.29012e-08
-3.22472e-07
4.27958e-08
-3.37285e-07
3.50469e-08
-3.85096e-07
-4.56609e-09
-3.65026e-07
-4.63257e-08
-3.29593e-07
-1.74889e-07
-2.6653e-07
-1.60218e-07
-1.24109e-07
-4.27615e-07
-2.07149e-07
-6.13899e-07
-2.32089e-06
-1.35611e-07
2.12253e-06
-1.45311e-07
1.24041e-06
-1.84164e-07
3.78648e-07
-1.68551e-07
1.05883e-07
-1.82828e-07
3.24889e-08
-2.30827e-07
4.82206e-08
-2.63657e-07
8.14839e-09
-2.95984e-07
4.47058e-08
-2.98239e-07
-2.25543e-08
-2.9488e-07
1.98686e-08
-2.66242e-07
-4.15388e-08
-2.44293e-07
2.08464e-08
-1.98357e-07
-1.08894e-08
-1.6751e-07
-3.5413e-08
-1.68442e-07
-4.53935e-08
-8.13607e-08
-2.6197e-07
-1.5374e-07
-8.78391e-08
-2.77331e-07
-3.04023e-07
-2.27135e-07
-6.64096e-07
-2.54803e-06
-5.71783e-08
2.1797e-06
-3.97482e-08
1.22298e-06
-4.7571e-08
3.86471e-07
-1.0822e-07
1.66532e-07
-1.70359e-07
9.4628e-08
-2.2084e-07
9.8701e-08
-2.62797e-07
5.01061e-08
-2.70328e-07
5.22367e-08
-2.70836e-07
-2.2047e-08
-2.49923e-07
-1.04382e-09
-1.71141e-07
-1.20321e-07
-1.45348e-07
-4.94718e-09
-9.20843e-08
-6.4153e-08
-5.02844e-08
-7.72129e-08
-5.49228e-08
-4.07551e-08
-7.73387e-08
-2.39554e-07
-2.04413e-08
-1.44736e-07
4.48776e-08
-3.69342e-07
1.96613e-09
-6.21185e-07
-2.54606e-06
-4.34764e-08
2.22318e-06
-6.40286e-09
1.18591e-06
7.23904e-09
3.72829e-07
-1.00164e-07
2.73935e-07
-1.91859e-07
1.86323e-07
-2.47817e-07
1.54659e-07
-3.02291e-07
1.04581e-07
-3.20897e-07
7.08426e-08
-3.28172e-07
-1.4772e-08
-3.09264e-07
-1.99521e-08
-2.11399e-07
-2.18185e-07
-1.87543e-07
-2.88039e-08
-1.58841e-07
-9.28542e-08
-1.23549e-07
-1.12505e-07
-1.59361e-07
-4.94326e-09
-1.90869e-07
-2.08047e-07
-1.29642e-07
-2.05963e-07
-1.04869e-07
-3.94116e-07
-1.2121e-07
-6.04843e-07
-2.66727e-06
-6.14714e-08
2.28465e-06
-6.06044e-08
1.18504e-06
-8.48898e-08
3.97114e-07
-1.06819e-07
2.95864e-07
-1.98972e-07
2.78476e-07
-2.80005e-07
2.35692e-07
-3.26573e-07
1.51148e-07
-3.56655e-07
1.00925e-07
-3.62917e-07
-8.50972e-09
-3.28394e-07
-5.44754e-08
-1.54557e-07
-3.92022e-07
-1.43648e-07
-3.97129e-08
-9.98981e-08
-1.36604e-07
-6.59191e-08
-1.46484e-07
1.21245e-08
-8.29869e-08
7.37994e-08
-2.69722e-07
-1.81969e-08
-1.13966e-07
-1.65231e-08
-3.95789e-07
1.08958e-09
-6.22456e-07
-2.66618e-06
2.15006e-08
2.26315e-06
-2.69052e-08
1.23344e-06
-4.18816e-08
4.12091e-07
-1.73937e-07
4.2792e-07
-2.74968e-07
3.79506e-07
-3.56342e-07
3.17066e-07
-4.42546e-07
2.37353e-07
-4.52068e-07
1.10447e-07
-4.60277e-07
-3.00453e-10
-3.75554e-07
-1.39198e-07
-2.08277e-07
-5.59299e-07
-2.17899e-07
-3.00908e-08
-2.40084e-07
-1.14419e-07
-2.56462e-07
-1.30107e-07
-1.61281e-07
-1.78168e-07
-1.89024e-07
-2.41979e-07
-1.7304e-07
-1.2995e-07
-5.04586e-08
-5.18371e-07
-9.00176e-08
-5.82897e-07
-2.7562e-06
-3.98914e-08
2.30304e-06
-3.02109e-08
1.22376e-06
-1.2825e-07
5.1013e-07
-2.1248e-07
5.1215e-07
-2.91168e-07
4.58194e-07
-3.64451e-07
3.90349e-07
-4.5358e-07
3.26481e-07
-5.25522e-07
1.82389e-07
-4.83143e-07
-4.26787e-08
-2.77013e-07
-3.45329e-07
-1.11981e-07
-7.2433e-07
-1.62639e-07
2.05667e-08
-1.68544e-07
-1.08514e-07
-1.96257e-07
-1.02394e-07
-1.79233e-07
-1.95192e-07
-1.87244e-07
-2.33967e-07
-1.43807e-07
-1.73387e-07
-2.20124e-08
-6.40166e-07
-1.00085e-08
-5.94901e-07
-2.76621e-06
4.45395e-08
2.2585e-06
-4.17606e-08
1.31006e-06
-1.23854e-07
5.92223e-07
-1.3853e-07
5.26825e-07
-2.56429e-07
5.76094e-07
-4.69017e-07
6.02937e-07
-6.30311e-07
4.87774e-07
-6.82479e-07
2.34557e-07
-5.59737e-07
-1.65421e-07
-2.80807e-07
-6.24259e-07
-2.15084e-07
-7.90053e-07
-2.0753e-07
1.30129e-08
-2.36184e-07
-7.98594e-08
-2.89987e-07
-4.85917e-08
-4.11314e-07
-7.38646e-08
-4.26805e-07
-2.18476e-07
-3.25681e-07
-2.74512e-07
-2.4568e-07
-7.20166e-07
-5.18952e-08
-7.88686e-07
-2.8181e-06
7.0168e-08
2.18834e-06
7.92788e-08
1.30095e-06
1.9295e-08
6.52207e-07
-9.26857e-08
6.38806e-07
-3.13548e-07
7.96957e-07
-6.15469e-07
9.04858e-07
-8.39635e-07
7.1194e-07
-7.87709e-07
1.82631e-07
-6.01999e-07
-3.5113e-07
-3.21099e-07
-9.05159e-07
-1.11683e-07
-9.9947e-07
8.65804e-09
-1.07328e-07
1.63764e-08
-8.75778e-08
-1.14032e-07
8.18167e-08
-1.96753e-07
8.85669e-09
-1.50317e-07
-2.64912e-07
-1.31066e-07
-2.93763e-07
-1.65553e-07
-6.8568e-07
-7.605e-08
-8.78188e-07
-2.89415e-06
-1.80604e-08
2.2064e-06
3.31497e-09
1.27958e-06
-8.23751e-08
7.37897e-07
-3.63588e-07
9.20019e-07
-6.3917e-07
1.07254e-06
-7.96962e-07
1.06265e-06
-8.35759e-07
7.50737e-07
-7.68689e-07
1.1556e-07
-6.62027e-07
-4.57793e-07
-4.54295e-07
-1.11289e-06
-2.48982e-07
-1.20478e-06
-8.34993e-09
-3.4796e-07
1.22679e-07
-2.18607e-07
1.58016e-07
4.64798e-08
1.59122e-07
7.75036e-09
7.75788e-08
-1.83368e-07
1.23759e-07
-3.39944e-07
-8.149e-09
-5.53771e-07
-2.49813e-08
-8.61356e-07
-2.91913e-06
2.08157e-08
2.18558e-06
2.96045e-08
1.27079e-06
-1.31665e-07
8.99167e-07
-2.35084e-07
1.02344e-06
-3.49325e-07
1.18678e-06
-4.34526e-07
1.14785e-06
-3.64028e-07
6.80239e-07
-2.44215e-07
-4.25206e-09
-1.41071e-07
-5.60937e-07
-7.51038e-08
-1.17886e-06
1.67778e-08
-1.29667e-06
2.4205e-07
-5.73233e-07
4.19562e-07
-3.96119e-07
4.97693e-07
-3.1651e-08
4.73629e-07
3.18146e-08
3.15997e-07
-2.57365e-08
2.52289e-07
-2.76236e-07
1.47269e-07
-4.48751e-07
-3.22742e-08
-6.81813e-07
-2.95141e-06
4.35501e-08
2.14203e-06
5.92695e-08
1.25507e-06
1.25832e-07
8.32605e-07
8.25667e-08
1.0667e-06
3.66672e-08
1.23268e-06
1.41259e-07
1.04326e-06
2.44947e-07
5.76551e-07
3.30256e-07
-8.95613e-08
4.38709e-07
-6.6939e-07
4.17351e-07
-1.1575e-06
2.43065e-07
-1.12238e-06
1.86744e-07
-5.16911e-07
-1.17649e-07
-9.17255e-08
-2.46891e-07
9.7591e-08
-3.38302e-07
1.23226e-07
-4.84996e-07
1.20957e-07
-3.49395e-07
-4.11837e-07
-2.58902e-07
-5.39244e-07
-2.99302e-08
-9.10785e-07
-2.98134e-06
2.8565e-08
2.11346e-06
1.20284e-07
1.16335e-06
1.49573e-07
8.03316e-07
2.84365e-07
9.31911e-07
5.37203e-07
9.7984e-07
6.39192e-07
9.41272e-07
8.57564e-07
3.58178e-07
9.51204e-07
-1.83201e-07
9.51596e-07
-6.69782e-07
8.34595e-07
-1.0405e-06
5.36736e-07
-8.24521e-07
5.10109e-07
-4.90285e-07
5.03849e-07
-8.54652e-08
1.18854e-07
4.82586e-07
-1.29733e-08
2.55053e-07
-4.06813e-09
1.12052e-07
-1.54175e-08
-4.00487e-07
-1.7241e-07
-3.82252e-07
-1.24546e-07
-9.5865e-07
-3.10588e-06
1.05645e-07
2.00782e-06
2.77018e-07
9.91978e-07
4.17608e-07
6.62725e-07
6.9421e-07
6.55309e-07
1.00498e-06
6.69074e-07
1.20861e-06
7.37641e-07
1.3803e-06
1.8649e-07
1.32422e-06
-1.27122e-07
1.41867e-06
-7.64237e-07
1.19542e-06
-8.17241e-07
7.55389e-07
-3.84494e-07
5.38922e-07
-2.73817e-07
6.40218e-07
-1.86762e-07
5.47325e-07
5.75479e-07
6.57972e-07
1.44407e-07
6.67696e-07
1.02328e-07
3.91231e-07
-1.24022e-07
1.16432e-07
-1.07453e-07
1.87662e-07
-1.02988e-06
-2.91822e-06
1.33401e-07
1.87442e-06
2.01149e-07
9.24231e-07
3.65069e-07
4.98805e-07
6.43586e-07
3.76792e-07
7.98506e-07
5.14154e-07
1.17389e-06
3.62257e-07
1.35809e-06
2.28651e-09
1.56168e-06
-3.30711e-07
1.57414e-06
-7.76692e-07
1.20047e-06
-4.43573e-07
4.36313e-07
3.7966e-07
-2.34596e-07
3.97092e-07
-6.95867e-07
2.7451e-07
-4.05318e-07
2.8493e-07
-2.46757e-07
-1.41543e-08
-3.83248e-07
2.38819e-07
1.66048e-07
-6.73318e-07
2.80569e-07
-2.21974e-07
1.60075e-08
-7.65318e-07
-2.90221e-06
3.36611e-07
1.53781e-06
3.7405e-07
8.86792e-07
4.73796e-07
3.99059e-07
7.13986e-07
1.36602e-07
1.12981e-06
9.83257e-08
1.39855e-06
9.35163e-08
1.49134e-06
-9.04951e-08
1.73303e-06
-5.72404e-07
1.53535e-06
-5.79013e-07
1.31115e-06
-2.19378e-07
1.31054e-06
3.80279e-07
1.40042e-06
3.07208e-07
1.38218e-06
2.92746e-07
1.5801e-06
8.70092e-08
1.74428e-06
-1.78332e-07
1.55462e-06
4.28478e-07
1.07441e-06
-1.93102e-07
6.40778e-07
2.11655e-07
4.24441e-07
-5.48982e-07
-2.47777e-06
4.91475e-07
1.04633e-06
7.29846e-07
6.4842e-07
8.17224e-07
3.11681e-07
8.12916e-07
1.4091e-07
7.82839e-07
1.28402e-07
7.01448e-07
1.74908e-07
4.30927e-07
1.80026e-07
-2.90953e-07
1.49476e-07
-9.44766e-07
7.48006e-08
-1.22606e-06
6.19147e-08
-8.76299e-07
3.05198e-08
-5.64507e-07
-4.58438e-09
-2.78509e-07
6.7477e-09
-1.14483e-07
-7.70165e-08
-2.6841e-07
-2.44046e-08
1.22239e-07
3.78291e-08
-2.34654e-07
1.6379e-07
6.85616e-08
-9.15606e-08
7.43842e-07
-1.22426e-06
-1.73393e-06
1.04633e-06
1.69475e-06
2.00643e-06
2.14734e-06
2.27575e-06
2.45065e-06
2.63068e-06
2.78016e-06
2.85496e-06
2.91687e-06
2.94739e-06
2.94281e-06
2.94955e-06
2.87254e-06
2.84813e-06
2.88596e-06
3.04975e-06
2.95819e-06
1.73393e-06
)
;

boundaryField
{
    movingWall
    {
        type            calculated;
        value           uniform 0;
    }
    fixedWalls
    {
        type            calculated;
        value           uniform 0;
    }
    frontAndBack
    {
        type            empty;
        value           nonuniform 0();
    }
}


// ************************************************************************* //
