/*--------------------------------*- C++ -*----------------------------------*\
| =========                 |                                                 |
| \\      /  F ield         | OpenFOAM: The Open Source CFD Toolbox           |
|  \\    /   O peration     | Version:  5.x                                   |
|   \\  /    A nd           | Web:      www.OpenFOAM.org                      |
|    \\/     M anipulation  |                                                 |
\*---------------------------------------------------------------------------*/
FoamFile
{
    version     2.0;
    format      ascii;
    class       volVectorField;
    location    "13.8";
    object      U;
}
// * * * * * * * * * * * * * * * * * * * * * * * * * * * * * * * * * * * * * //

dimensions      [0 1 -1 0 0 0 0];

internalField   nonuniform List<vector> 
400
(
(-0.0139951 0.0101814 0)
(-0.0331431 0.00438811 0)
(-0.0393923 0.00183067 0)
(-0.0447373 0.00148774 0)
(-0.0455898 -0.00140028 0)
(-0.0482222 0.0010546 0)
(-0.046404 -0.00276751 0)
(-0.0485625 0.000774965 0)
(-0.0464488 -0.00215978 0)
(-0.0479676 0.000582554 0)
(-0.0473066 -0.000542084 0)
(-0.0481173 -3.38528e-05 0)
(-0.0478219 -0.000632404 0)
(-0.0478039 -0.00112487 0)
(-0.0469687 -0.000699187 0)
(-0.0474084 -0.00174565 0)
(-0.0432827 -0.00175694 0)
(-0.0404978 -0.00476663 0)
(-0.0381805 -0.00738068 0)
(-0.00332773 -0.0141232 0)
(-0.00784644 0.0294468 0)
(-0.0182767 0.0208611 0)
(-0.0199415 0.0100226 0)
(-0.0207658 0.00493161 0)
(-0.0201339 0.00239265 0)
(-0.0225777 0.0016072 0)
(-0.0169047 0.0007545 0)
(-0.024286 0.000729165 0)
(-0.0151284 0.0006803 0)
(-0.0252019 0.000650331 0)
(-0.0151087 0.0010366 0)
(-0.0236645 -9.79327e-05 0)
(-0.0174806 0.000644741 0)
(-0.0219079 -0.00143958 0)
(-0.0204092 0.000366134 0)
(-0.0181759 -0.00245824 0)
(-0.0219063 -0.0016413 0)
(-0.0131102 -0.0103729 0)
(-0.0299519 -0.0216379 0)
(-0.00205971 -0.0383992 0)
(-0.00497892 0.0382566 0)
(-0.00895165 0.0235198 0)
(-0.00794395 0.00630786 0)
(-0.00850617 0.0028454 0)
(-0.0038768 -0.000320189 0)
(-0.00861607 -0.0013209 0)
(-0.00293509 -0.00119631 0)
(-0.00802953 -0.00122314 0)
(-0.0045327 -0.00101939 0)
(-0.00653289 -0.000445517 0)
(-0.00614391 -0.000796506 0)
(-0.00476953 0.000318971 0)
(-0.00871456 0.000327281 0)
(-0.0041612 -0.000466463 0)
(-0.011997 -0.00122926 0)
(-0.00186305 -0.00275802 0)
(-0.0119709 -0.00164131 0)
(0.00180982 -3.65335e-05 0)
(-0.00749184 -0.00335401 0)
(0.000573338 -0.0436673 0)
(-0.00337938 0.0427533 0)
(-0.00290137 0.0268405 0)
(-0.00235565 0.0073015 0)
(-0.00505214 0.00238472 0)
(-0.0016126 0.000978435 0)
(-0.00553239 0.00133981 0)
(-0.0039247 0.000259678 0)
(-0.00638674 0.00170141 0)
(-0.00569834 0.000106018 0)
(-0.00593502 0.00132534 0)
(-0.00618691 0.000336908 0)
(-0.0040379 0.00144919 0)
(-0.00627393 0.000945767 0)
(-0.00113901 0.000255861 0)
(-0.00607574 -0.000789914 0)
(-0.00017048 -0.00451324 0)
(-0.00338183 -0.0050828 0)
(-0.00210799 -0.0166977 0)
(-0.0103918 -0.0233281 0)
(0.00268509 -0.050221 0)
(-0.00226154 0.0436337 0)
(-0.000514454 0.0237765 0)
(-0.000738896 0.00849397 0)
(-0.00138881 0.00165179 0)
(-0.00267039 0.000428124 0)
(-0.00418992 0.000515816 0)
(-0.00484195 7.91455e-05 0)
(-0.00539716 0.000150747 0)
(-0.00575118 -0.00105473 0)
(-0.00469037 -0.000465517 0)
(-0.0056444 -0.0020693 0)
(-0.00090772 -0.000662809 0)
(-0.00524763 -0.00134093 0)
(0.0018405 -0.00174082 0)
(-0.00406116 -0.000889476 0)
(0.00209813 -0.00581718 0)
(-0.00546963 0.00148924 0)
(0.00476926 0.00421392 0)
(-0.00318621 -0.00120103 0)
(0.00332928 -0.0487959 0)
(-0.000451564 0.0441033 0)
(-0.00156268 0.0261305 0)
(0.00140105 0.00711236 0)
(-0.00116819 0.00529439 0)
(-0.00281078 0.00327971 0)
(-0.00472185 0.00343177 0)
(-0.00544532 0.00187008 0)
(-0.0063528 0.00190417 0)
(-0.00680087 0.000210722 0)
(-0.00600256 0.000413194 0)
(-0.00650821 -0.00260128 0)
(-0.00174432 0.00050844 0)
(-0.00612491 -0.00111913 0)
(0.000156475 -0.0011735 0)
(-0.00546763 -0.000681814 0)
(-0.000443294 -0.00338813 0)
(-0.00773529 -0.00714224 0)
(0.00303978 -0.0185534 0)
(-0.00771704 -0.0249611 0)
(0.00336097 -0.0544124 0)
(-0.00208537 0.0460477 0)
(-0.000673754 0.0210441 0)
(-0.00147803 0.00758857 0)
(-0.00197216 0.00544857 0)
(-0.00239594 0.00429278 0)
(-0.00541757 0.00289864 0)
(-0.00601713 0.00247265 0)
(-0.00683772 0.00102067 0)
(-0.00770284 -0.000745936 0)
(-0.00647617 -0.00114038 0)
(-0.00649058 -0.00623064 0)
(0.000186546 -0.0018087 0)
(-0.00618462 -0.00282309 0)
(0.0024759 -0.0036072 0)
(-0.00535459 0.000423097 0)
(0.0059268 -0.00543666 0)
(-0.00320539 -0.000860286 0)
(0.00263945 0.00254618 0)
(-0.0034758 0.00158298 0)
(0.00356358 -0.0506586 0)
(0.00266023 0.0445723 0)
(-0.00186787 0.0269183 0)
(0.000757745 0.00815091 0)
(-0.00229585 0.00661796 0)
(-0.00492137 0.00678407 0)
(-0.00590317 0.00639393 0)
(-0.0086525 0.00343064 0)
(-0.00873571 0.00306698 0)
(-0.00962587 0.000358773 0)
(-0.00883 -0.00114267 0)
(-0.00578931 -0.00902299 0)
(-0.00256608 0.000465792 0)
(-0.00658296 -0.00223911 0)
(-0.00254899 -0.00182472 0)
(-0.00822211 -0.00342831 0)
(0.00224041 -0.00473006 0)
(-0.0104928 -0.00399637 0)
(0.00435829 -0.0178988 0)
(-0.00678159 -0.0260533 0)
(0.00359898 -0.0567501 0)
(-0.00154501 0.0466568 0)
(8.02778e-05 0.0220721 0)
(-0.00138396 0.00874212 0)
(-0.00364084 0.010115 0)
(-0.00489762 0.00862928 0)
(-0.00687304 0.00662035 0)
(-0.00803043 0.00634603 0)
(-0.00997793 0.00152106 0)
(-0.0107525 -0.000352329 0)
(-0.00863446 -0.00449499 0)
(-0.0022954 -0.0141155 0)
(-0.00199141 -0.00191045 0)
(-0.00487514 -0.0028051 0)
(-0.00148075 -0.00391079 0)
(-0.0068144 -0.00424701 0)
(5.06207e-05 -0.0055136 0)
(-0.00799289 -0.000869465 0)
(0.00284206 -0.00330782 0)
(-0.00402096 0.00167031 0)
(0.00381093 -0.0525469 0)
(0.0018195 0.0453436 0)
(-0.00022573 0.0263387 0)
(-0.0014139 0.0110615 0)
(-0.00324929 0.0106975 0)
(-0.00259408 0.00916262 0)
(-0.00767644 0.00860288 0)
(-0.0114547 0.00702958 0)
(-0.013608 0.00604624 0)
(-0.0134819 -0.00123348 0)
(-0.00837087 -0.00876423 0)
(-0.00292667 -0.0139499 0)
(-0.00539292 0.00289524 0)
(-0.00334714 -0.00102807 0)
(-0.00550327 0.000398679 0)
(-0.00677931 -0.00275767 0)
(-0.00898212 -0.00319034 0)
(-0.00893447 -0.00566378 0)
(-0.00331635 -0.0217283 0)
(-0.00696816 -0.0240617 0)
(0.00497714 -0.0591527 0)
(0.00133718 0.0443638 0)
(0.00162239 0.0267628 0)
(0.0013742 0.0131418 0)
(-0.000541713 0.0100025 0)
(-0.00301263 0.0146348 0)
(-0.00972848 0.0166022 0)
(-0.0158738 0.0133085 0)
(-0.0171352 0.00396792 0)
(-0.0140385 -0.00484651 0)
(-0.00931531 -0.0155208 0)
(-0.00303335 -0.018392 0)
(-0.00168739 -0.00251503 0)
(0.0019672 -0.00267153 0)
(-0.0011653 -0.00281475 0)
(-0.00400969 -0.00084122 0)
(-0.00297514 -0.006385 0)
(-0.00385848 -0.00637976 0)
(-0.000604852 -0.00845643 0)
(-0.00682008 -0.0090135 0)
(0.00427562 -0.0548631 0)
(-0.000706859 0.0444749 0)
(7.08801e-05 0.0252023 0)
(3.66113e-05 0.0128827 0)
(-0.00303657 0.0161803 0)
(-0.0112017 0.0168864 0)
(-0.0153376 0.0182033 0)
(-0.01771 0.0139998 0)
(-0.0152445 0.00260774 0)
(-0.0154919 -0.0102751 0)
(-0.0101818 -0.0220832 0)
(-0.00674622 -0.0214034 0)
(-0.0037778 -0.00131456 0)
(0.00335377 -0.000225291 0)
(0.00199603 0.00676366 0)
(0.00362967 0.00141439 0)
(0.00338689 -0.0032409 0)
(-0.000814622 -0.00428995 0)
(0.00663683 -0.0173076 0)
(-0.00723685 -0.025268 0)
(0.00665636 -0.059239 0)
(-6.74822e-06 0.0420486 0)
(0.000792107 0.0246289 0)
(0.000504968 0.0159562 0)
(-0.00539019 0.0195134 0)
(-0.00438125 0.0244353 0)
(-0.00994996 0.0230285 0)
(-0.00879531 0.0144432 0)
(-0.00500548 0.00145708 0)
(-0.00529577 -0.00924661 0)
(9.48652e-05 -0.023903 0)
(-0.00244051 -0.0276537 0)
(0.00296132 -0.0133943 0)
(0.00574934 -0.00957272 0)
(0.0118552 -0.00547293 0)
(0.00696523 -0.001324 0)
(0.0131598 -0.00491238 0)
(-0.00145676 -0.0102352 0)
(0.0125953 -0.0063204 0)
(-0.00769486 -0.01039 0)
(0.00685067 -0.055734 0)
(-4.1231e-05 0.0462064 0)
(0.00197413 0.0274441 0)
(0.000208917 0.0199154 0)
(0.00530119 0.0213978 0)
(-0.0022144 0.0238414 0)
(0.00352001 0.0224518 0)
(0.00132329 0.0127587 0)
(0.0090826 -0.00153369 0)
(0.00416674 -0.0122739 0)
(0.0137673 -0.022532 0)
(0.00457701 -0.0236838 0)
(0.0047563 -0.0082041 0)
(0.00174434 -0.00499076 0)
(-0.00594986 0.00468541 0)
(-0.00448653 0.00312929 0)
(-0.00853742 0.00430013 0)
(-0.0118912 0.000671532 0)
(-0.000838442 -0.00983808 0)
(-0.0103551 -0.0145043 0)
(0.00904296 -0.0627159 0)
(-0.00137488 0.0392855 0)
(0.00230411 0.0210532 0)
(0.00290036 0.0127364 0)
(0.00344002 0.0202439 0)
(0.00811327 0.0248262 0)
(0.0121379 0.0183203 0)
(0.012226 0.0102481 0)
(0.0220815 -0.00196992 0)
(0.0163014 -0.0140595 0)
(0.0222983 -0.0230604 0)
(0.013595 -0.0204901 0)
(0.00645718 -0.0137559 0)
(0.0142187 0.00125034 0)
(0.00539661 -0.0014241 0)
(-0.00115385 0.000624047 0)
(0.000910128 -0.00043591 0)
(-0.00131849 -0.0199427 0)
(0.0011529 -0.0143553 0)
(-0.00938597 -0.0257854 0)
(0.00536988 -0.0599588 0)
(0.00219355 0.0437856 0)
(0.0023487 0.0270076 0)
(0.0080828 0.0203177 0)
(0.00970123 0.0185734 0)
(0.0171371 0.0154431 0)
(0.0218892 0.0210357 0)
(0.0256221 0.00526674 0)
(0.0283522 -0.00466217 0)
(0.0246429 -0.0114119 0)
(0.0334764 -0.0170236 0)
(0.0165114 -0.013062 0)
(0.0136067 -0.00506661 0)
(0.00631217 -0.00449204 0)
(0.0186159 0.0217781 0)
(0.00515806 0.0111081 0)
(0.0188527 0.00582601 0)
(0.00979944 0.0070157 0)
(0.00623202 0.00120625 0)
(-0.00207512 -0.00831681 0)
(0.00988503 -0.0612343 0)
(-0.00288827 0.0381017 0)
(0.00804531 0.012819 0)
(-0.000563723 0.00579698 0)
(0.0159703 0.00673899 0)
(0.0103262 0.012058 0)
(0.0204487 0.00864174 0)
(0.0266978 0.00245279 0)
(0.0284491 0.00016105 0)
(0.0315569 -0.0178468 0)
(0.0331842 -0.0136112 0)
(0.0170406 -0.000603585 0)
(0.001877 -0.0047698 0)
(-0.0131254 -0.00425872 0)
(-0.013444 -0.000810611 0)
(-0.000591501 -0.00579605 0)
(-0.0110074 -0.00259743 0)
(-0.00518932 -0.0136165 0)
(0.0134378 -0.00652789 0)
(-0.00462452 -0.0378081 0)
(0.00579989 -0.0594764 0)
(0.00200489 0.0352797 0)
(0.00997198 0.0220619 0)
(0.00594154 0.0143046 0)
(0.0137967 0.0092119 0)
(0.0154229 0.00854 0)
(0.0282494 0.00515888 0)
(0.0285652 -0.00247622 0)
(0.0333331 -0.01466 0)
(0.0328434 -0.0149205 0)
(0.0284995 -0.00535827 0)
(0.0257557 0.0140191 0)
(0.0290758 0.0187539 0)
(0.0250385 0.01709 0)
(0.0303767 0.0133952 0)
(0.0314638 0.00495257 0)
(0.0374244 0.012666 0)
(0.0260226 -0.0104843 0)
(0.0193561 -5.10755e-05 0)
(0.00404797 0.0115407 0)
(0.0148605 -0.0510254 0)
(0.00214524 0.0277692 0)
(0.0156874 0.0152608 0)
(0.0138953 0.00157035 0)
(0.0186749 -0.004338 0)
(0.0154255 -0.00460068 0)
(0.0143183 -0.000918659 0)
(0.0157379 -2.86848e-05 0)
(0.00284646 -0.00538529 0)
(-0.0159957 -0.00890537 0)
(-0.0253838 -0.00551687 0)
(-0.0205458 -0.000828111 0)
(-0.0106502 -0.00489106 0)
(-0.0153109 -0.00688702 0)
(0.00661908 -0.00901721 0)
(-0.0127491 -0.0125724 0)
(0.00339188 0.00420215 0)
(0.00288051 0.00235174 0)
(-0.0153585 0.00547693 0)
(0.0196272 -0.0367068 0)
(0.011333 -0.0575087 0)
(0.0090819 0.0165993 0)
(0.02971 0.0120222 0)
(0.0386678 0.0115868 0)
(0.0426271 0.0104765 0)
(0.0456208 0.00944346 0)
(0.0459859 0.0072246 0)
(0.0497772 0.00560223 0)
(0.0548656 0.00974162 0)
(0.0569732 0.0122889 0)
(0.0579689 0.00933199 0)
(0.0566537 0.00280213 0)
(0.0618086 0.00452852 0)
(0.0578569 0.0072922 0)
(0.0610125 0.004967 0)
(0.0560098 0.012063 0)
(0.057318 -0.00215387 0)
(0.0563427 0.00469442 0)
(0.0587689 -0.00724817 0)
(0.0551982 -0.00754752 0)
(0.0240226 -0.00111907 0)
)
;

boundaryField
{
    movingWall
    {
        type            fixedValue;
        value           uniform (1 0 0);
    }
    fixedWalls
    {
        type            noSlip;
    }
    frontAndBack
    {
        type            empty;
    }
}


// ************************************************************************* //
