/*--------------------------------*- C++ -*----------------------------------*\
| =========                 |                                                 |
| \\      /  F ield         | OpenFOAM: The Open Source CFD Toolbox           |
|  \\    /   O peration     | Version:  5.x                                   |
|   \\  /    A nd           | Web:      www.OpenFOAM.org                      |
|    \\/     M anipulation  |                                                 |
\*---------------------------------------------------------------------------*/
FoamFile
{
    version     2.0;
    format      ascii;
    class       volScalarField;
    location    "2.8";
    object      p;
}
// * * * * * * * * * * * * * * * * * * * * * * * * * * * * * * * * * * * * * //

dimensions      [0 2 -2 0 0 0 0];

internalField   nonuniform List<scalar> 
400
(
2.97683e-10
5.07844e-07
1.58081e-06
3.23743e-06
5.52149e-06
8.48779e-06
1.22002e-05
1.67276e-05
2.21381e-05
2.84907e-05
3.58227e-05
4.41321e-05
5.33552e-05
6.33387e-05
7.38153e-05
8.43395e-05
9.42928e-05
0.000102901
0.000109327
0.000112725
-5.71587e-07
-7.89877e-08
9.65433e-07
2.58051e-06
4.81205e-06
7.71763e-06
1.13654e-05
1.58303e-05
2.11894e-05
2.75137e-05
3.48566e-05
4.32365e-05
5.26133e-05
6.28568e-05
7.37364e-05
8.48145e-05
9.54468e-05
0.000104781
0.000111862
0.000115681
-1.7464e-06
-1.28394e-06
-2.9734e-07
1.23322e-06
3.35716e-06
6.13744e-06
9.6505e-06
1.39836e-05
1.9231e-05
2.54877e-05
3.28395e-05
4.13466e-05
5.10193e-05
6.17856e-05
7.34742e-05
8.56771e-05
9.77293e-05
0.000108647
0.000117204
0.000122028
-3.48907e-06
-3.07321e-06
-2.17638e-06
-7.77577e-07
1.17787e-06
3.75991e-06
7.05564e-06
1.11686e-05
1.6217e-05
2.23304e-05
2.96419e-05
3.82756e-05
4.83216e-05
5.98012e-05
7.26724e-05
8.65969e-05
0.000100924
0.000114515
0.000125677
0.000132478
-5.75605e-06
-5.40469e-06
-4.63266e-06
-3.41803e-06
-1.70037e-06
5.97691e-07
3.57477e-06
7.35223e-06
1.2076e-05
1.79175e-05
2.50713e-05
3.37472e-05
4.41489e-05
5.64203e-05
7.07707e-05
8.69927e-05
0.000104571
0.000122295
0.000137784
0.000148416
-8.48566e-06
-8.21865e-06
-7.61026e-06
-6.6382e-06
-5.23655e-06
-3.32167e-06
-7.85095e-07
2.51065e-06
6.73792e-06
1.21109e-05
1.88927e-05
2.74005e-05
3.80057e-05
5.11358e-05
6.68994e-05
8.58443e-05
0.000107707
0.000131459
0.000153978
0.000172173
-1.15964e-05
-1.1436e-05
-1.1034e-05
-1.03686e-05
-9.3691e-06
-7.94896e-06
-5.99426e-06
-3.35767e-06
1.51964e-07
4.78335e-06
1.08603e-05
1.88021e-05
2.91426e-05
4.25215e-05
5.9594e-05
8.14197e-05
0.000108441
0.000140454
0.000174018
0.000207491
-1.49847e-05
-1.49566e-05
-1.48075e-05
-1.45172e-05
-1.40113e-05
-1.32053e-05
-1.19877e-05
-1.02122e-05
-7.68402e-06
-4.1393e-06
7.82697e-07
7.57921e-06
1.694e-05
2.98256e-05
4.75863e-05
7.1315e-05
0.000103391
0.000145422
0.000195126
0.000259553
-1.85207e-05
-1.86579e-05
-1.88122e-05
-1.89688e-05
-1.9048e-05
-1.89756e-05
-1.86529e-05
-1.79506e-05
-1.66925e-05
-1.46322e-05
-1.14183e-05
-6.54333e-06
7.37745e-07
1.15401e-05
2.75411e-05
5.12032e-05
8.59885e-05
0.000137372
0.000206268
0.000328719
-2.20476e-05
-2.23934e-05
-2.29064e-05
-2.3583e-05
-2.43338e-05
-2.51045e-05
-2.58218e-05
-2.63909e-05
-2.66823e-05
-2.65085e-05
-2.55895e-05
-2.35039e-05
-1.96088e-05
-1.2891e-05
-1.71463e-06
1.67077e-05
4.88046e-05
0.000101751
0.000170905
0.000382314
-2.53489e-05
-2.60224e-05
-2.69395e-05
-2.82331e-05
-2.97127e-05
-3.14107e-05
-3.32767e-05
-3.52728e-05
-3.73443e-05
-3.94072e-05
-4.13238e-05
-4.28814e-05
-4.37602e-05
-4.34579e-05
-4.12129e-05
-3.655e-05
-2.57936e-05
9.90054e-06
-3.52424e-05
0.000253407
-2.82326e-05
-2.92858e-05
-3.06767e-05
-3.25925e-05
-3.49036e-05
-3.76021e-05
-4.07023e-05
-4.4223e-05
-4.82144e-05
-5.27246e-05
-5.77953e-05
-6.3494e-05
-6.99848e-05
-7.75815e-05
-8.6905e-05
-0.000101267
-0.000136265
-0.000115362
-0.000416356
-6.35238e-05
-3.016e-05
-3.28369e-05
-3.42546e-05
-3.7851e-05
-4.05239e-05
-4.4186e-05
-4.82112e-05
-5.30852e-05
-5.89321e-05
-6.59666e-05
-7.44116e-05
-8.46545e-05
-9.73623e-05
-0.000113831
-0.000135892
-0.000160678
-0.000245387
-0.000199483
-0.000514481
-0.000279019
-3.13075e-05
-3.39315e-05
-3.63931e-05
-3.90914e-05
-4.30033e-05
-4.74845e-05
-5.31399e-05
-5.99249e-05
-6.80029e-05
-7.75561e-05
-8.90454e-05
-0.000103051
-0.000120652
-0.000143346
-0.000175893
-0.000201808
-0.000305032
-0.000276965
-0.000444859
-0.000355308
-2.82272e-05
-3.69326e-05
-3.99267e-05
-4.81631e-05
-5.09497e-05
-5.76573e-05
-6.25746e-05
-7.0042e-05
-7.87212e-05
-8.98206e-05
-0.000103489
-0.000120829
-0.000142847
-0.000168655
-0.000214684
-0.000244676
-0.000360087
-0.000401203
-0.000566334
-0.000517723
-2.89919e-05
-4.00858e-05
-4.10068e-05
-4.37932e-05
-4.76733e-05
-5.21594e-05
-5.92819e-05
-6.84137e-05
-7.98283e-05
-9.32603e-05
-0.000109971
-0.000129327
-0.000154724
-0.000182032
-0.000229591
-0.000271736
-0.000384869
-0.000461958
-0.00064658
-0.000586105
-5.18226e-06
-2.65736e-05
-4.56559e-05
-5.82173e-05
-6.0697e-05
-7.02322e-05
-7.16398e-05
-8.35644e-05
-9.16711e-05
-0.000105838
-0.000121535
-0.000141213
-0.000169371
-0.000191973
-0.00023703
-0.000287675
-0.0003682
-0.000490051
-0.000580865
-0.000383776
-1.53543e-05
-7.6962e-05
-5.96181e-05
-5.14601e-05
-4.68735e-05
-4.98033e-05
-5.52457e-05
-6.6585e-05
-8.07084e-05
-9.53668e-05
-0.000115829
-0.000137701
-0.000162439
-0.000195761
-0.000225126
-0.000267651
-0.000304236
-0.000390925
-0.00041473
-4.21382e-05
2.81456e-05
-5.7722e-05
-6.51761e-05
-6.48119e-05
-5.43859e-05
-7.71614e-05
-6.23696e-05
-8.97526e-05
-9.60966e-05
-0.000107873
-0.000131362
-0.000148136
-0.000172528
-0.000201484
-0.000217068
-0.000279419
-0.000280421
-0.000267186
-0.000321616
0.000468765
-0.000114617
-3.24854e-05
-1.94381e-05
-2.21858e-05
-2.85806e-05
-4.26528e-05
-4.49932e-05
-5.80847e-05
-8.10191e-05
-8.68809e-05
-0.000110356
-0.000142561
-0.000142731
-0.000187046
-0.000205921
-0.000203067
-0.000185355
9.10198e-05
0.000551533
0.00196819
)
;

boundaryField
{
    movingWall
    {
        type            zeroGradient;
    }
    fixedWalls
    {
        type            zeroGradient;
    }
    frontAndBack
    {
        type            empty;
    }
}


// ************************************************************************* //
