/*--------------------------------*- C++ -*----------------------------------*\
| =========                 |                                                 |
| \\      /  F ield         | OpenFOAM: The Open Source CFD Toolbox           |
|  \\    /   O peration     | Version:  5.x                                   |
|   \\  /    A nd           | Web:      www.OpenFOAM.org                      |
|    \\/     M anipulation  |                                                 |
\*---------------------------------------------------------------------------*/
FoamFile
{
    version     2.0;
    format      ascii;
    class       surfaceScalarField;
    location    "10.3";
    object      phi;
}
// * * * * * * * * * * * * * * * * * * * * * * * * * * * * * * * * * * * * * //

dimensions      [0 3 -1 0 0 0 0];

internalField   nonuniform List<scalar> 
760
(
-1.04755e-06
1.04755e-06
-1.70057e-06
6.53018e-07
-2.02983e-06
3.29258e-07
-2.21936e-06
1.89528e-07
-2.28006e-06
6.07049e-08
-2.31045e-06
3.03869e-08
-2.35494e-06
4.44865e-08
-2.37994e-06
2.5008e-08
-2.37246e-06
-7.4859e-09
-2.34628e-06
-2.61802e-08
-2.38706e-06
4.07782e-08
-2.38402e-06
-3.03939e-09
-2.35911e-06
-2.49066e-08
-2.3379e-06
-2.12139e-08
-2.37115e-06
3.32561e-08
-2.26419e-06
-1.06968e-07
-2.22306e-06
-4.113e-08
-1.91318e-06
-3.09871e-07
-1.20434e-06
-7.08839e-07
-1.20434e-06
-4.73147e-07
1.5207e-06
-7.35884e-07
9.15755e-07
-8.24087e-07
4.17462e-07
-8.61935e-07
2.27376e-07
-9.19217e-07
1.17986e-07
-9.80679e-07
9.18495e-08
-9.8982e-07
5.36273e-08
-9.91017e-07
2.6205e-08
-1.009e-06
1.04962e-08
-1.02502e-06
-1.01569e-08
-9.95988e-07
1.17435e-08
-9.67688e-07
-3.1339e-08
-9.89203e-07
-3.39241e-09
-9.47897e-07
-6.25198e-08
-9.27406e-07
1.27657e-08
-9.44945e-07
-8.94294e-08
-9.88151e-07
2.07582e-09
-1.02388e-06
-2.74147e-07
-9.39586e-07
-7.93128e-07
-2.14393e-06
-2.09967e-07
1.73067e-06
-3.01002e-07
1.00679e-06
-3.42841e-07
4.59301e-07
-3.63544e-07
2.48078e-07
-3.68522e-07
1.22964e-07
-3.68312e-07
9.16394e-08
-3.34607e-07
1.99225e-08
-3.02694e-07
-5.70835e-09
-2.77631e-07
-1.45669e-08
-2.57026e-07
-3.07621e-08
-2.12296e-07
-3.29863e-08
-2.0107e-07
-4.25649e-08
-1.69948e-07
-3.4514e-08
-1.64375e-07
-6.80933e-08
-1.49416e-07
-2.1932e-09
-1.63787e-07
-7.50581e-08
-1.68613e-07
6.90118e-09
-1.22747e-07
-3.20012e-07
-1.95092e-07
-7.20782e-07
-2.33902e-06
-5.33737e-08
1.78404e-06
-1.45519e-07
1.09894e-06
-2.58291e-07
5.72073e-07
-3.01058e-07
2.90846e-07
-3.12497e-07
1.34404e-07
-3.08871e-07
8.80127e-08
-2.68396e-07
-2.05525e-08
-2.36461e-07
-3.76436e-08
-1.95977e-07
-5.50503e-08
-1.62702e-07
-6.40378e-08
-1.44734e-07
-5.0954e-08
-1.24708e-07
-6.25907e-08
-1.44097e-07
-1.51253e-08
-1.49526e-07
-6.26645e-08
-1.94361e-07
4.26425e-08
-1.86372e-07
-8.30478e-08
-1.72679e-07
-6.79148e-09
-2.27903e-07
-2.64789e-07
-2.1792e-07
-7.30766e-07
-2.55694e-06
-1.25673e-07
1.90971e-06
-2.61132e-07
1.2344e-06
-4.13021e-07
7.23962e-07
-4.50009e-07
3.27833e-07
-4.22469e-07
1.06864e-07
-3.63409e-07
2.89528e-08
-3.17166e-07
-6.6795e-08
-2.68435e-07
-8.63745e-08
-2.18335e-07
-1.05151e-07
-1.72286e-07
-1.10086e-07
-1.27777e-07
-9.54628e-08
-8.50399e-08
-1.05328e-07
-4.28779e-08
-5.72873e-08
2.96411e-09
-1.08506e-07
5.2532e-08
-6.92532e-09
1.14007e-07
-1.44522e-07
1.08227e-07
-1.01141e-09
6.02417e-08
-2.16804e-07
5.57413e-09
-6.76098e-07
-2.55137e-06
-1.51595e-07
2.06131e-06
-3.49278e-07
1.43208e-06
-5.29817e-07
9.04502e-07
-5.78925e-07
3.76941e-07
-5.09609e-07
3.75479e-08
-4.02989e-07
-7.76674e-08
-3.20723e-07
-1.49061e-07
-2.46283e-07
-1.60814e-07
-1.87206e-07
-1.64227e-07
-1.37821e-07
-1.59472e-07
-1.13476e-07
-1.19808e-07
-8.68339e-08
-1.3197e-07
-8.0672e-08
-6.34492e-08
-7.36591e-08
-1.15519e-07
-6.10698e-08
-1.95146e-08
-8.35373e-08
-1.22055e-07
-5.47132e-08
-2.98354e-08
-3.47053e-08
-2.36812e-07
-3.75639e-08
-6.73239e-07
-2.58893e-06
-2.59418e-07
2.32073e-06
-4.88804e-07
1.66146e-06
-6.80284e-07
1.09598e-06
-7.38001e-07
4.34659e-07
-6.42145e-07
-5.83085e-08
-4.86073e-07
-2.3374e-07
-3.67393e-07
-2.67741e-07
-2.71884e-07
-2.56323e-07
-1.91467e-07
-2.44645e-07
-1.30809e-07
-2.2013e-07
-7.56933e-08
-1.74923e-07
-3.83371e-08
-1.69326e-07
2.34321e-09
-1.04129e-07
3.06188e-08
-1.43795e-07
5.14149e-08
-4.03107e-08
7.70482e-08
-1.47688e-07
6.33104e-08
-1.60976e-08
1.62323e-08
-1.89734e-07
-1.86309e-08
-6.38376e-07
-2.60756e-06
-1.65551e-07
2.48628e-06
-4.94112e-07
1.99002e-06
-7.01661e-07
1.30353e-06
-7.81996e-07
5.14994e-07
-7.10283e-07
-1.30021e-07
-5.22304e-07
-4.21718e-07
-3.59441e-07
-4.30605e-07
-2.47668e-07
-3.68096e-07
-1.72505e-07
-3.19808e-07
-1.19315e-07
-2.7332e-07
-8.22908e-08
-2.11948e-07
-6.34419e-08
-1.88175e-07
-4.02507e-08
-1.27321e-07
-3.86596e-08
-1.45386e-07
-1.55261e-08
-6.34442e-08
-3.21519e-08
-1.31062e-07
-2.38027e-08
-2.44468e-08
-6.61107e-10
-2.12875e-07
1.83726e-08
-6.5741e-07
-2.58919e-06
-2.14015e-07
2.70029e-06
-4.00289e-07
2.1763e-06
-5.64498e-07
1.46774e-06
-6.80486e-07
6.30982e-07
-6.52545e-07
-1.57961e-07
-4.74384e-07
-5.9988e-07
-2.75235e-07
-6.29753e-07
-1.5535e-07
-4.8798e-07
-7.52658e-08
-3.99892e-07
-3.25653e-08
-3.16021e-07
1.06852e-08
-2.55198e-07
2.01603e-08
-1.9765e-07
4.43853e-08
-1.51546e-07
4.03978e-08
-1.41399e-07
5.54005e-08
-7.84469e-08
6.62037e-08
-1.41866e-07
5.38413e-08
-1.20844e-08
5.29957e-09
-1.64334e-07
-4.45828e-08
-6.07527e-07
-2.63377e-06
-1.29455e-08
2.71324e-06
-2.45191e-08
2.18787e-06
-1.85269e-07
1.62849e-06
-3.08942e-07
7.54655e-07
-3.43929e-07
-1.22974e-07
-2.842e-07
-6.59609e-07
-1.30647e-07
-7.83307e-07
-5.73475e-08
-5.6128e-07
-2.668e-08
-4.3056e-07
-2.392e-08
-3.18781e-07
1.32785e-09
-2.80446e-07
-1.50544e-08
-1.81268e-07
1.20266e-08
-1.78627e-07
-7.77946e-09
-1.21593e-07
4.15854e-08
-1.27812e-07
6.23958e-08
-1.62676e-07
2.68649e-08
2.34464e-08
2.60117e-08
-1.6348e-07
3.40485e-08
-6.15564e-07
-2.59973e-06
2.43949e-07
2.46929e-06
3.45896e-07
2.08592e-06
2.94875e-07
1.67951e-06
1.74552e-07
8.74978e-07
6.61504e-08
-1.45724e-08
3.01712e-08
-6.2363e-07
1.84254e-07
-9.37389e-07
3.43648e-07
-7.20674e-07
3.18122e-07
-4.05034e-07
2.0319e-07
-2.03848e-07
1.45389e-07
-2.22645e-07
1.11373e-07
-1.47252e-07
8.80179e-08
-1.55272e-07
6.53981e-08
-9.89727e-08
5.37773e-08
-1.16191e-07
-4.23892e-09
-1.0466e-07
2.70784e-08
-7.87092e-09
1.29491e-08
-1.49351e-07
-5.62089e-08
-5.46406e-07
-2.65593e-06
4.31758e-07
2.03753e-06
5.92865e-07
1.92482e-06
7.21898e-07
1.55048e-06
7.65329e-07
8.31547e-07
6.52135e-07
9.8621e-08
4.62227e-07
-4.33721e-07
2.25058e-07
-7.00221e-07
2.01308e-07
-6.96923e-07
2.27926e-07
-4.31652e-07
1.99086e-07
-1.75008e-07
1.35193e-07
-1.58752e-07
7.42508e-08
-8.63094e-08
1.09832e-08
-9.20042e-08
-9.0667e-08
2.67751e-09
2.41589e-08
-2.31017e-07
-3.38223e-08
-4.66787e-08
1.31743e-08
-5.48675e-08
1.06683e-07
-2.4286e-07
3.09551e-08
-4.70678e-07
-2.62498e-06
8.89942e-07
1.14759e-06
1.32307e-06
1.49169e-06
1.56884e-06
1.30471e-06
1.56848e-06
8.31906e-07
1.53676e-06
1.3034e-07
1.38019e-06
-2.7715e-07
8.65352e-07
-1.85384e-07
3.06548e-07
-1.38119e-07
9.64809e-08
-2.21586e-07
4.47003e-08
-1.23228e-07
1.24026e-07
-2.38078e-07
1.42191e-08
2.34978e-08
1.05723e-07
-1.83508e-07
7.97924e-08
2.86078e-08
5.11947e-08
-2.02419e-07
2.2627e-08
-1.81109e-08
4.06247e-08
-7.28653e-08
6.94191e-08
-2.71654e-07
-2.81406e-08
-3.73119e-07
-2.65312e-06
9.43546e-07
2.04044e-07
1.46699e-06
9.6824e-07
1.61226e-06
1.15945e-06
1.58391e-06
8.60259e-07
1.53086e-06
1.83382e-07
1.39581e-06
-1.42093e-07
1.33529e-06
-1.2487e-07
1.19273e-06
4.44776e-09
1.05827e-06
-8.71315e-08
9.08886e-07
2.61581e-08
7.97104e-07
-1.26297e-07
7.24972e-07
9.56299e-08
5.4814e-07
-6.67625e-09
4.21046e-07
1.55703e-07
-2.27626e-08
2.41389e-07
-3.58966e-07
3.18093e-07
-2.08074e-07
-2.23757e-07
-1.32438e-07
-3.4729e-07
2.15775e-08
-5.27134e-07
-2.63154e-06
5.46139e-07
-3.42095e-07
1.08322e-06
4.31156e-07
1.24247e-06
1.0002e-06
1.27796e-06
8.24765e-07
1.02649e-06
4.34857e-07
6.94769e-07
1.89623e-07
4.00336e-07
1.69564e-07
3.19511e-07
8.52725e-08
1.17428e-07
1.14952e-07
5.05921e-08
9.29936e-08
-1.30994e-07
5.52897e-08
-1.36993e-07
1.01629e-07
-1.49472e-07
5.80249e-09
-2.00773e-07
2.07004e-07
4.84619e-08
-7.84559e-09
1.63968e-07
2.02587e-07
1.35099e-07
-1.94889e-07
-1.93848e-07
-1.83423e-08
-7.52588e-08
-6.45724e-07
-2.7068e-06
2.78884e-07
-6.20978e-07
5.37159e-07
1.7288e-07
7.88539e-07
7.48823e-07
1.04242e-06
5.70887e-07
9.80864e-07
4.9641e-07
9.53928e-07
2.16559e-07
8.29732e-07
2.9376e-07
7.55712e-07
1.59293e-07
6.43268e-07
2.27396e-07
5.54494e-07
1.81767e-07
4.95661e-07
1.14123e-07
3.41325e-07
2.55964e-07
3.62845e-07
-1.5717e-08
2.99038e-07
2.7081e-07
2.12965e-07
7.82275e-08
3.91177e-07
2.43759e-08
4.33041e-07
-2.36754e-07
1.03886e-07
3.10812e-07
8.42926e-08
-6.2613e-07
-2.62251e-06
-1.34893e-07
-4.86085e-07
-3.84805e-07
4.22792e-07
-9.85077e-08
4.62526e-07
4.87562e-08
4.23623e-07
8.90292e-08
4.56137e-07
5.90733e-08
2.46515e-07
1.00053e-07
2.5278e-07
4.16184e-08
2.17727e-07
9.60425e-08
1.72972e-07
8.34098e-08
1.944e-07
5.00378e-08
1.47495e-07
1.58499e-07
1.47502e-07
-5.85031e-09
1.48633e-07
5.27003e-08
2.12259e-07
-1.05709e-08
1.41499e-07
-3.17549e-07
3.31354e-07
6.39932e-08
-6.18296e-07
2.68992e-07
1.05814e-07
4.44858e-08
-4.01625e-07
-2.57802e-06
-1.25705e-07
-3.6038e-07
1.65038e-07
1.32049e-07
3.09675e-07
3.17889e-07
3.93071e-07
3.40227e-07
5.45959e-07
3.03249e-07
5.83764e-07
2.0871e-07
6.36767e-07
1.99778e-07
6.67079e-07
1.87416e-07
6.87427e-07
1.52623e-07
7.2633e-07
1.55497e-07
6.9442e-07
1.79406e-07
6.82965e-07
1.58957e-07
7.21e-07
1.10598e-07
5.90443e-07
3.42816e-07
7.78392e-07
-4.64502e-08
7.29198e-07
3.80548e-07
4.30669e-07
-3.19767e-07
2.94896e-07
2.41587e-07
2.72991e-07
-3.7972e-07
-2.30503e-06
-7.32253e-07
3.71873e-07
-8.29332e-07
2.29128e-07
-7.77898e-07
2.66455e-07
-6.71262e-07
2.33591e-07
-5.56175e-07
1.88162e-07
-5.01751e-07
1.54286e-07
-4.81515e-07
1.79542e-07
-4.33717e-07
1.39617e-07
-4.08034e-07
1.2694e-07
-3.75312e-07
1.22774e-07
-3.06248e-07
1.10342e-07
-2.57171e-07
1.09881e-07
-2.05472e-07
5.88985e-08
-4.34307e-08
1.80775e-07
-1.79616e-07
8.97355e-08
9.1567e-08
1.09364e-07
-2.15421e-07
-1.27791e-08
8.75501e-08
-6.13836e-08
7.33172e-07
-1.02534e-06
-1.57186e-06
3.71873e-07
6.01001e-07
8.67456e-07
1.10105e-06
1.28921e-06
1.44349e-06
1.62304e-06
1.76265e-06
1.88959e-06
2.01237e-06
2.12271e-06
2.23259e-06
2.29149e-06
2.47226e-06
2.562e-06
2.67136e-06
2.65859e-06
2.5972e-06
1.57186e-06
)
;

boundaryField
{
    movingWall
    {
        type            calculated;
        value           uniform 0;
    }
    fixedWalls
    {
        type            calculated;
        value           uniform 0;
    }
    frontAndBack
    {
        type            empty;
        value           nonuniform 0();
    }
}


// ************************************************************************* //
