/*--------------------------------*- C++ -*----------------------------------*\
| =========                 |                                                 |
| \\      /  F ield         | OpenFOAM: The Open Source CFD Toolbox           |
|  \\    /   O peration     | Version:  5.x                                   |
|   \\  /    A nd           | Web:      www.OpenFOAM.org                      |
|    \\/     M anipulation  |                                                 |
\*---------------------------------------------------------------------------*/
FoamFile
{
    version     2.0;
    format      ascii;
    class       volVectorField;
    location    "10.3";
    object      U;
}
// * * * * * * * * * * * * * * * * * * * * * * * * * * * * * * * * * * * * * //

dimensions      [0 1 -1 0 0 0 0];

internalField   nonuniform List<vector> 
400
(
(-0.0140668 0.00427959 0)
(-0.0313814 0.00130971 0)
(-0.037223 0.000768406 0)
(-0.0425813 0.000382102 0)
(-0.0452739 -0.00209421 0)
(-0.0447822 -0.00231333 0)
(-0.0471422 -0.000230062 0)
(-0.0468038 -0.00104399 0)
(-0.047903 -0.00172458 0)
(-0.047398 -0.00229547 0)
(-0.0461321 -0.000263203 0)
(-0.0487631 -0.00125078 0)
(-0.0479795 -0.00291631 0)
(-0.0450055 -0.00103926 0)
(-0.0498865 -0.000342214 0)
(-0.0465952 -0.00278886 0)
(-0.0442751 -0.000395549 0)
(-0.0425505 -0.00461883 0)
(-0.0392244 -0.0109274 0)
(-0.00272832 -0.0141452 0)
(-0.00720701 0.0330786 0)
(-0.013459 0.0219668 0)
(-0.0157695 0.0109114 0)
(-0.0164771 0.00635167 0)
(-0.0182597 0.0041398 0)
(-0.0183383 0.00341881 0)
(-0.0201845 0.00210769 0)
(-0.0198815 0.00192204 0)
(-0.019628 0.0013877 0)
(-0.0206673 0.00117501 0)
(-0.0203182 0.00181295 0)
(-0.0190378 0.00109935 0)
(-0.0208076 0.00179458 0)
(-0.0172459 0.000180166 0)
(-0.0217729 0.00168839 0)
(-0.0147626 -0.00180352 0)
(-0.0237207 -0.00177082 0)
(-0.0156516 -0.00978742 0)
(-0.0284958 -0.0208904 0)
(-0.00436747 -0.0390012 0)
(-0.0040618 0.0310885 0)
(-0.00531152 0.016721 0)
(-0.00645996 0.00684233 0)
(-0.00716187 0.0033969 0)
(-0.00710873 0.00104167 0)
(-0.00773555 0.000454897 0)
(-0.00676261 -2.96609e-05 0)
(-0.0064002 -0.000744861 0)
(-0.00605785 -0.000902387 0)
(-0.00455438 -0.00151795 0)
(-0.00621379 -0.00137429 0)
(-0.00178323 -0.00217798 0)
(-0.00682586 -0.0019068 0)
(0.000605072 -0.00283427 0)
(-0.0077056 -0.00126565 0)
(0.00206507 -0.00193516 0)
(-0.00891912 0.00192264 0)
(0.00238628 0.00016609 0)
(-0.0080273 -0.00818513 0)
(0.00164457 -0.0441913 0)
(-0.00117602 0.0377488 0)
(-0.00130739 0.0240246 0)
(-0.00446476 0.011826 0)
(-0.00614371 0.00671208 0)
(-0.00569496 0.00369441 0)
(-0.00690619 0.00311093 0)
(-0.00544814 0.000857176 0)
(-0.00498672 0.000494353 0)
(-0.00479368 0.000283457 0)
(-0.00269791 0.000181435 0)
(-0.00411364 0.000146984 0)
(-0.00135942 0.000333403 0)
(-0.00396894 0.000642405 0)
(-0.00138336 0.000291212 0)
(-0.00499897 0.00122951 0)
(-0.00233593 -0.00074453 0)
(-0.00553106 -0.00157126 0)
(-0.000903838 -0.0127422 0)
(-0.00920149 -0.0221041 0)
(0.00163911 -0.0504479 0)
(-0.00255406 0.0344184 0)
(-0.00278974 0.0204165 0)
(-0.00776035 0.0116104 0)
(-0.00923625 0.00533677 0)
(-0.00852994 0.00193506 0)
(-0.00815471 0.000596763 0)
(-0.0065844 -0.00159665 0)
(-0.00571647 -0.00190927 0)
(-0.00541102 -0.00241025 0)
(-0.00289554 -0.00260888 0)
(-0.00439294 -0.00227857 0)
(-0.000336715 -0.0027526 0)
(-0.00340432 -0.00134991 0)
(0.00195181 -0.00296734 0)
(-0.00190324 0.000219049 0)
(0.00426951 -0.00295996 0)
(-9.02773e-05 0.00119009 0)
(0.00475064 0.00150975 0)
(-0.0026913 -0.00601114 0)
(0.00304843 -0.0488816 0)
(-0.00209442 0.0417736 0)
(-0.00417778 0.0292392 0)
(-0.0100781 0.0177505 0)
(-0.0117419 0.00802135 0)
(-0.0110048 0.00242487 0)
(-0.00901988 0.000532653 0)
(-0.00739159 -0.00120734 0)
(-0.00502132 -0.00168602 0)
(-0.00518343 -0.00191389 0)
(-0.00196521 -0.00192998 0)
(-0.00383545 -0.00138758 0)
(-0.000430436 -0.00138664 0)
(-0.00329255 -0.000721113 0)
(0.000315747 -0.00113633 0)
(-0.0035047 -0.000385219 0)
(0.00130885 -0.00231329 0)
(-0.00501039 -0.00117722 0)
(0.00316046 -0.00939177 0)
(-0.00482783 -0.02005 0)
(0.00357214 -0.0528361 0)
(-0.00371629 0.0407672 0)
(-0.00712889 0.0272351 0)
(-0.0128282 0.0180799 0)
(-0.0151158 0.00688073 0)
(-0.0137277 -0.000826046 0)
(-0.0113346 -0.00348422 0)
(-0.00847723 -0.0046776 0)
(-0.00580759 -0.00482572 0)
(-0.00542103 -0.00477015 0)
(-0.00191164 -0.00459925 0)
(-0.0036227 -0.00362662 0)
(0.000853452 -0.00409871 0)
(-0.0026 -0.00207138 0)
(0.00275557 -0.00374866 0)
(-0.00175691 -0.00057979 0)
(0.00410578 -0.00300397 0)
(-0.00139281 -0.000253952 0)
(0.00428445 -0.000898833 0)
(-0.00385474 -0.00824633 0)
(0.00334621 -0.0500358 0)
(0.00154555 0.0502405 0)
(-0.00834261 0.038295 0)
(-0.0124556 0.0246095 0)
(-0.0155454 0.0102568 0)
(-0.0151969 -0.001649 0)
(-0.0122447 -0.00613615 0)
(-0.00892063 -0.0063103 0)
(-0.00514935 -0.00555078 0)
(-0.0051033 -0.00486697 0)
(-0.00153253 -0.0039812 0)
(-0.00350347 -0.00307504 0)
(0.000442422 -0.00240305 0)
(-0.003214 -0.00176765 0)
(0.00180106 -0.00169609 0)
(-0.0035577 -0.000784136 0)
(0.00308046 -0.00246967 0)
(-0.00460992 -0.000223395 0)
(0.0038874 -0.00599974 0)
(-0.00396213 -0.0158127 0)
(0.00483453 -0.0533158 0)
(-0.00280563 0.0474695 0)
(-0.0062272 0.0392072 0)
(-0.0107778 0.0259241 0)
(-0.0125207 0.00918642 0)
(-0.0139253 -0.00410233 0)
(-0.011019 -0.0114993 0)
(-0.00776466 -0.0114563 0)
(-0.00335518 -0.00965991 0)
(-0.00316086 -0.00834598 0)
(0.000288711 -0.0073902 0)
(-0.00173369 -0.00579994 0)
(0.00227082 -0.0054716 0)
(-0.00164018 -0.00369406 0)
(0.00368638 -0.00445431 0)
(-0.00234598 -0.00203956 0)
(0.00490174 -0.00312802 0)
(-0.00264601 -0.000946604 0)
(0.0051792 -0.00320069 0)
(-0.00510179 -0.0120057 0)
(0.00368907 -0.0511964 0)
(-0.00219334 0.058991 0)
(0.00155285 0.0467937 0)
(-0.00269042 0.0315285 0)
(-0.00531234 0.0150353 0)
(-0.00642372 -0.00259843 0)
(-0.00644226 -0.0126291 0)
(-0.00443435 -0.013477 0)
(-0.000821562 -0.00935867 0)
(-0.00173103 -0.00721765 0)
(0.000783337 -0.00471155 0)
(-0.00189699 -0.00399143 0)
(0.0019965 -0.00201416 0)
(-0.0027457 -0.00197435 0)
(0.00337372 -0.000830275 0)
(-0.00380454 -0.000829731 0)
(0.00575787 -0.00223681 0)
(-0.00365213 0.000587293 0)
(0.00500374 -0.00282086 0)
(-0.00421529 -0.0108539 0)
(0.0057881 -0.0530983 0)
(0.00254166 0.0497557 0)
(0.00629227 0.0412741 0)
(0.00654942 0.0336947 0)
(0.00446757 0.0159286 0)
(0.00278996 -0.00252903 0)
(0.000406309 -0.0143307 0)
(0.00107583 -0.0185605 0)
(0.00613942 -0.0137521 0)
(0.00689837 -0.0100951 0)
(0.00613322 -0.00851232 0)
(0.00160231 -0.00762399 0)
(0.00454946 -0.00566592 0)
(-0.000490708 -0.00562404 0)
(0.00438866 -0.00441283 0)
(-0.0021166 -0.00458518 0)
(0.00461875 -0.00454938 0)
(-0.00490069 0.00019123 0)
(0.00629856 -0.0041922 0)
(-0.00601313 -0.0151759 0)
(0.00420488 -0.0523876 0)
(0.00479695 0.0500787 0)
(0.0109389 0.0429303 0)
(0.011485 0.0334609 0)
(0.0160502 0.0174478 0)
(0.0150062 0.00167657 0)
(0.0129512 -0.0113849 0)
(0.00618639 -0.0201029 0)
(0.00297209 -0.0157075 0)
(0.00433097 -0.00673503 0)
(0.00515051 0.000452019 0)
(0.00252307 -0.00109194 0)
(0.00316164 0.00017821 0)
(-0.000485459 -0.000103326 0)
(0.00106205 0.00085799 0)
(-0.00510388 0.000297376 0)
(0.00630748 0.000479136 0)
(-0.00798756 -0.000444832 0)
(0.00873271 -0.00139272 0)
(-0.00506381 -0.00550738 0)
(0.00658618 -0.0519548 0)
(0.00964792 0.0357695 0)
(0.0230725 0.0377691 0)
(0.0298348 0.0311375 0)
(0.0320196 0.0173699 0)
(0.0307091 0.00275323 0)
(0.0324051 -0.00530978 0)
(0.0252402 -0.00602031 0)
(0.00860621 -0.0103905 0)
(0.0029141 -0.0094784 0)
(0.00063172 -0.00761027 0)
(0.00142636 -0.00510972 0)
(0.00320953 -0.00395332 0)
(-0.0027144 -0.00398478 0)
(0.00730377 -0.00083439 0)
(-0.00454105 -0.010329 0)
(0.00702692 -0.00220323 0)
(-0.0064228 -0.00173495 0)
(0.00841558 -0.00896865 0)
(-0.00612263 -0.0140582 0)
(0.00528013 -0.053235 0)
(0.0067337 0.00990968 0)
(0.0275077 0.0207078 0)
(0.0332704 0.0232257 0)
(0.0322733 0.018557 0)
(0.0300406 0.00354751 0)
(0.0319622 -0.00452903 0)
(0.0245494 -0.00182219 0)
(0.028416 0.00407865 0)
(0.0196103 0.000279675 0)
(0.022717 0.00306151 0)
(0.0139372 -0.00399953 0)
(0.017294 0.00513191 0)
(0.0119142 -0.00282107 0)
(0.0103949 0.00233337 0)
(0.00707173 0.00317941 0)
(-0.00813858 0.00158627 0)
(-0.00719565 -0.000870576 0)
(8.61408e-06 -0.000805167 0)
(-0.00620161 0.00012746 0)
(0.00732303 -0.0523601 0)
(-0.00303689 -0.00272818 0)
(0.0224907 0.0162533 0)
(0.0230506 0.0215519 0)
(0.0271451 0.0141379 0)
(0.0228124 0.00298446 0)
(0.0184541 -0.00170182 0)
(0.00885429 -0.00325052 0)
(0.0080939 -0.00376141 0)
(0.00401073 -0.0036929 0)
(0.000973643 -0.00216809 0)
(0.00113513 -0.00151119 0)
(-0.00697787 -0.00194576 0)
(0.00236487 0.00248625 0)
(-0.00935413 0.0028525 0)
(0.00244762 0.00549156 0)
(-0.000891203 0.00998064 0)
(0.00696501 -0.00910166 0)
(-0.000740323 -0.0144135 0)
(-0.00823767 -0.023108 0)
(0.00593018 -0.0553104 0)
(0.000284018 -0.0126627 0)
(0.0098032 0.000346442 0)
(0.0128517 0.0172194 0)
(0.0195261 0.0177015 0)
(0.0208848 0.0135503 0)
(0.0191739 0.00894637 0)
(0.017722 0.00959715 0)
(0.0165886 0.00671429 0)
(0.0128364 0.00803197 0)
(0.0136002 0.00602025 0)
(0.00807127 0.00407519 0)
(0.0119911 0.00672529 0)
(0.00212029 -0.00217004 0)
(0.0116699 0.00664861 0)
(0.000879541 -0.00566826 0)
(0.00782852 -0.00064756 0)
(0.00757697 0.00266911 0)
(0.00901656 0.0138361 0)
(-0.00501137 -0.000395883 0)
(0.00879833 -0.0517358 0)
(0.00390511 -0.0101445 0)
(-0.0102862 0.00674505 0)
(-0.00393258 0.0117169 0)
(0.000493032 0.00557086 0)
(0.00123773 0.00690441 0)
(0.00226784 3.7022e-05 0)
(-0.000103968 0.00285547 0)
(0.00448228 0.00025319 0)
(-0.00309979 0.00112961 0)
(0.00741932 0.00153223 0)
(-0.00450241 -1.11411e-05 0)
(0.00667796 0.00251543 0)
(0.000199652 0.00139327 0)
(-0.000593033 0.00295345 0)
(0.00327523 0.00856096 0)
(-0.00388839 0.00124937 0)
(-0.0102312 -0.0139021 0)
(0.0136915 -0.00227364 0)
(-0.00485699 -0.0272444 0)
(0.00737921 -0.054606 0)
(-0.00628851 -0.00964504 0)
(0.000270533 0.00996338 0)
(0.00735366 0.00789448 0)
(0.0044249 0.0108284 0)
(0.0113974 0.0104986 0)
(0.00998143 0.00912719 0)
(0.0132485 0.00665953 0)
(0.0122893 0.00779156 0)
(0.0140646 0.00587402 0)
(0.0139502 0.00584261 0)
(0.0141716 0.00638842 0)
(0.0148415 0.00405177 0)
(0.0113761 0.00503015 0)
(0.0181246 0.00639263 0)
(0.00674396 -0.00262871 0)
(0.0220611 0.0114494 0)
(0.00799129 -0.00860595 0)
(0.0111813 0.0077009 0)
(-0.00118423 0.0133626 0)
(0.0137162 -0.0463395 0)
(-0.0198622 -0.00366427 0)
(-0.0113116 -0.00422069 0)
(-0.0204475 0.00379085 0)
(-0.0109824 0.00235399 0)
(-0.0149528 0.00214014 0)
(-0.0075253 -0.00012426 0)
(-0.0133924 0.00151868 0)
(-0.00519341 0.000168066 0)
(-0.0126466 0.000285373 0)
(-0.0031213 0.000608769 0)
(-0.0126959 0.000251808 0)
(0.00139584 0.00173541 0)
(-0.012705 -0.00123359 0)
(0.00548732 0.00661096 0)
(-0.00762857 0.000396869 0)
(5.98021e-05 0.00485938 0)
(0.00444076 -0.00373784 0)
(-0.0148723 -0.000525358 0)
(0.0191373 -0.0310995 0)
(0.0131085 -0.0535115 0)
(0.000239753 0.016986 0)
(0.0150953 0.0130459 0)
(0.0103648 0.00787207 0)
(0.0223004 0.00741356 0)
(0.0234457 0.00518548 0)
(0.0269854 0.00581906 0)
(0.0314797 0.00580167 0)
(0.0328674 0.00516172 0)
(0.0374982 0.00472388 0)
(0.0381952 0.00436046 0)
(0.0425109 0.00459353 0)
(0.0422223 0.00297957 0)
(0.0465601 0.00407599 0)
(0.0469721 0.00106255 0)
(0.049758 0.00372251 0)
(0.0520338 -0.000327845 0)
(0.052363 0.00307866 0)
(0.0521211 -0.000720639 0)
(0.0460984 -0.00495071 0)
(0.0250816 -2.55627e-05 0)
)
;

boundaryField
{
    movingWall
    {
        type            fixedValue;
        value           uniform (1 0 0);
    }
    fixedWalls
    {
        type            noSlip;
    }
    frontAndBack
    {
        type            empty;
    }
}


// ************************************************************************* //
