/*--------------------------------*- C++ -*----------------------------------*\
| =========                 |                                                 |
| \\      /  F ield         | OpenFOAM: The Open Source CFD Toolbox           |
|  \\    /   O peration     | Version:  5.x                                   |
|   \\  /    A nd           | Web:      www.OpenFOAM.org                      |
|    \\/     M anipulation  |                                                 |
\*---------------------------------------------------------------------------*/
FoamFile
{
    version     2.0;
    format      ascii;
    class       surfaceScalarField;
    location    "2.2";
    object      phi;
}
// * * * * * * * * * * * * * * * * * * * * * * * * * * * * * * * * * * * * * //

dimensions      [0 3 -1 0 0 0 0];

internalField   nonuniform List<scalar> 
760
(
-6.49048e-09
6.49049e-09
-1.31413e-08
6.65083e-09
-1.96205e-08
6.47923e-09
-2.58345e-08
6.21398e-09
-3.16847e-08
5.85019e-09
-3.70654e-08
5.38068e-09
-4.18623e-08
4.79694e-09
-4.59519e-08
4.08961e-09
-4.92013e-08
3.24932e-09
-5.14693e-08
2.26804e-09
-5.2611e-08
1.14166e-09
-5.24785e-08
-1.32513e-10
-5.09181e-08
-1.56034e-09
-4.78279e-08
-3.09019e-09
-4.3145e-08
-4.68296e-09
-3.68765e-08
-6.26847e-09
-2.91221e-08
-7.75445e-09
-2.00945e-08
-9.02755e-09
-1.01334e-08
-9.96107e-09
-1.01334e-08
-6.83056e-09
1.3321e-08
-1.38273e-08
1.36476e-08
-2.06451e-08
1.3297e-08
-2.71864e-08
1.27553e-08
-3.33491e-08
1.20129e-08
-3.9024e-08
1.10556e-08
-4.40934e-08
9.8664e-09
-4.84301e-08
8.42624e-09
-5.18963e-08
6.71557e-09
-5.43455e-08
4.71718e-09
-5.56255e-08
2.42167e-09
-5.55884e-08
-1.69582e-10
-5.40439e-08
-3.10484e-09
-5.08753e-08
-6.25883e-09
-4.60037e-08
-9.55456e-09
-3.94194e-08
-1.28528e-08
-3.1208e-08
-1.59658e-08
-2.15818e-08
-1.86538e-08
-1.09031e-08
-2.06397e-08
-2.10366e-08
-7.00441e-09
2.03255e-08
-1.41882e-08
2.08314e-08
-2.12001e-08
2.03088e-08
-2.79461e-08
1.95012e-08
-3.43272e-08
1.8394e-08
-4.02369e-08
1.69653e-08
-4.55595e-08
1.51889e-08
-5.01679e-08
1.30346e-08
-5.39226e-08
1.04703e-08
-5.66705e-08
7.46513e-09
-5.82452e-08
3.99629e-09
-5.84915e-08
7.67406e-11
-5.71743e-08
-4.42199e-09
-5.41448e-08
-9.28835e-09
-4.92706e-08
-1.44288e-08
-4.24897e-08
-1.96336e-08
-3.38453e-08
-2.46103e-08
-2.35311e-08
-2.89679e-08
-1.19364e-08
-3.22345e-08
-3.29729e-08
-7.25561e-09
2.75811e-08
-1.47106e-08
2.82864e-08
-2.20051e-08
2.76033e-08
-2.9051e-08
2.65472e-08
-3.57544e-08
2.50974e-08
-4.20133e-08
2.32242e-08
-4.77153e-08
2.08909e-08
-5.27354e-08
1.80547e-08
-5.69327e-08
1.46676e-08
-6.01478e-08
1.06802e-08
-6.22014e-08
6.04984e-09
-6.28966e-08
7.71988e-10
-6.19849e-08
-5.33376e-09
-5.92281e-08
-1.20451e-08
-5.44127e-08
-1.92441e-08
-4.73843e-08
-2.66621e-08
-3.81059e-08
-3.38887e-08
-2.67216e-08
-4.03522e-08
-1.36497e-08
-4.53064e-08
-4.66227e-08
-7.58256e-09
3.51636e-08
-1.53918e-08
3.60956e-08
-2.30564e-08
3.52679e-08
-3.04964e-08
3.39872e-08
-3.76247e-08
3.22257e-08
-4.43458e-08
2.99453e-08
-5.05536e-08
2.70987e-08
-5.61278e-08
2.3629e-08
-6.09294e-08
1.94692e-08
-6.47943e-08
1.45451e-08
-6.75278e-08
8.7833e-09
-6.88955e-08
2.13974e-09
-6.86171e-08
-5.61219e-09
-6.63432e-08
-1.4319e-08
-6.1737e-08
-2.38503e-08
-5.44901e-08
-3.3909e-08
-4.44145e-08
-4.39643e-08
-3.1541e-08
-5.32257e-08
-1.62953e-08
-6.0552e-08
-6.29179e-08
-7.97638e-09
4.314e-08
-1.62149e-08
4.43341e-08
-2.43298e-08
4.33828e-08
-3.22512e-08
4.19086e-08
-3.99004e-08
3.98749e-08
-4.71912e-08
3.7236e-08
-5.40268e-08
3.39344e-08
-6.02968e-08
2.98989e-08
-6.58693e-08
2.50417e-08
-7.05824e-08
1.92582e-08
-7.4231e-08
1.24319e-08
-7.65489e-08
4.45762e-09
-7.72214e-08
-4.93968e-09
-7.57596e-08
-1.57809e-08
-7.16592e-08
-2.79507e-08
-6.43729e-08
-4.11953e-08
-5.34347e-08
-5.49025e-08
-3.86331e-08
-6.80273e-08
-2.03289e-08
-7.88562e-08
-8.32469e-08
-8.42474e-09
5.15647e-08
-1.71571e-08
5.30665e-08
-2.57933e-08
5.20191e-08
-3.42748e-08
5.03901e-08
-4.25326e-08
4.81327e-08
-5.0491e-08
4.51944e-08
-5.80675e-08
4.15109e-08
-6.51679e-08
3.69992e-08
-7.16777e-08
3.15515e-08
-7.74488e-08
2.50293e-08
-8.22793e-08
1.72625e-08
-8.5887e-08
8.06529e-09
-8.79401e-08
-2.8866e-09
-8.77847e-08
-1.59363e-08
-8.47123e-08
-3.10231e-08
-7.78306e-08
-4.80769e-08
-6.61931e-08
-6.654e-08
-4.9075e-08
-8.51454e-08
-2.65979e-08
-1.01333e-07
-1.09845e-07
-8.91063e-09
6.04754e-08
-1.81887e-08
6.23446e-08
-2.7407e-08
6.12373e-08
-3.65181e-08
5.95013e-08
-4.54611e-08
5.70756e-08
-5.41721e-08
5.39055e-08
-6.25866e-08
4.99254e-08
-7.06355e-08
4.50481e-08
-7.82361e-08
3.91521e-08
-8.52744e-08
3.20676e-08
-9.15765e-08
2.35646e-08
-9.68586e-08
1.33474e-08
-1.00857e-07
1.11202e-09
-1.02709e-07
-1.40844e-08
-1.01518e-07
-3.22144e-08
-9.5929e-08
-5.36658e-08
-8.4242e-08
-7.82269e-08
-6.46832e-08
-1.04704e-07
-3.6729e-08
-1.29288e-07
-1.46574e-07
-9.40861e-09
6.9884e-08
-1.92701e-08
7.22061e-08
-2.91214e-08
7.10886e-08
-3.89236e-08
6.93035e-08
-4.86175e-08
6.67695e-08
-5.81488e-08
6.34368e-08
-6.7474e-08
5.92506e-08
-7.65589e-08
5.41331e-08
-8.53704e-08
4.79636e-08
-9.38577e-08
4.0555e-08
-1.01922e-07
3.16286e-08
-1.09366e-07
2.07917e-08
-1.15817e-07
7.56316e-09
-1.20701e-07
-9.20008e-09
-1.22699e-07
-3.02172e-08
-1.19992e-07
-5.63723e-08
-1.09831e-07
-8.83884e-08
-8.85701e-08
-1.25965e-07
-5.39764e-08
-1.63881e-07
-2.0055e-07
-9.8791e-09
7.97631e-08
-2.03484e-08
8.26753e-08
-3.08767e-08
8.16169e-08
-4.14288e-08
7.98556e-08
-5.19302e-08
7.72709e-08
-6.23292e-08
7.38358e-08
-7.26043e-08
6.95257e-08
-8.2765e-08
6.42938e-08
-9.28468e-08
5.80454e-08
-1.02897e-07
5.06051e-08
-1.12945e-07
4.16765e-08
-1.22944e-07
3.07909e-08
-1.32619e-07
1.72378e-08
-1.41598e-07
-2.20522e-10
-1.48626e-07
-2.3189e-08
-1.51436e-07
-5.35628e-08
-1.46021e-07
-9.3803e-08
-1.25975e-07
-1.46011e-07
-8.51311e-08
-2.04725e-07
-2.85681e-07
-1.02269e-08
8.999e-08
-2.13459e-08
9.37943e-08
-3.25942e-08
9.28653e-08
-4.3973e-08
9.12343e-08
-5.53361e-08
8.8634e-08
-6.66292e-08
8.51289e-08
-7.78502e-08
8.07467e-08
-8.90577e-08
7.55012e-08
-1.0037e-07
6.93576e-08
-1.11957e-07
6.21926e-08
-1.24022e-07
5.37412e-08
-1.36754e-07
4.35233e-08
-1.5026e-07
3.07433e-08
-1.64711e-07
1.42309e-08
-1.7922e-07
-8.68066e-09
-1.91391e-07
-4.13913e-08
-1.96584e-07
-8.86096e-08
-1.84649e-07
-1.57947e-07
-1.44887e-07
-2.44487e-07
-4.30568e-07
-1.04427e-08
1.00433e-07
-2.21997e-08
1.05551e-07
-3.41925e-08
1.04858e-07
-4.6502e-08
1.03544e-07
-5.879e-08
1.00922e-07
-7.09885e-08
9.73273e-08
-8.31082e-08
9.28664e-08
-9.52547e-08
8.76478e-08
-1.07645e-07
8.17476e-08
-1.20617e-07
7.51647e-08
-1.34647e-07
6.77714e-08
-1.504e-07
5.92763e-08
-1.68422e-07
4.87649e-08
-1.88923e-07
3.47326e-08
-2.12015e-07
1.44115e-08
-2.3837e-07
-1.50367e-08
-2.64553e-07
-6.24267e-08
-2.75823e-07
-1.46677e-07
-2.62113e-07
-2.58197e-07
-6.92681e-07
-9.33424e-09
1.09767e-07
-2.27827e-08
1.19e-07
-3.53861e-08
1.17462e-07
-4.9119e-08
1.17277e-07
-6.237e-08
1.14173e-07
-7.54552e-08
1.10413e-07
-8.83506e-08
1.05762e-07
-1.01207e-07
1.00504e-07
-1.14308e-07
9.4849e-08
-1.28094e-07
8.89501e-08
-1.43165e-07
8.28423e-08
-1.60405e-07
7.65165e-08
-1.81397e-07
6.97567e-08
-2.08339e-07
6.16755e-08
-2.43752e-07
4.98237e-08
-2.89837e-07
3.10489e-08
-3.52149e-07
-1.14801e-10
-4.06436e-07
-9.23903e-08
-4.56759e-07
-2.07874e-07
-1.14944e-06
-1.18949e-08
1.21662e-07
-2.28653e-08
1.2997e-07
-3.69307e-08
1.31527e-07
-5.08682e-08
1.31214e-07
-6.54694e-08
1.28774e-07
-7.967e-08
1.24613e-07
-9.34642e-08
1.19556e-07
-1.06894e-07
1.13934e-07
-1.20423e-07
1.08378e-07
-1.34822e-07
1.03349e-07
-1.51161e-07
9.91816e-08
-1.70782e-07
9.61374e-08
-1.95449e-07
9.44233e-08
-2.28125e-07
9.43515e-08
-2.72692e-07
9.43908e-08
-3.34903e-07
9.32598e-08
-4.29838e-07
9.48207e-08
-5.15485e-07
-6.74344e-09
-5.78818e-07
-1.44541e-07
-1.72826e-06
5.50113e-09
1.16161e-07
-1.9613e-08
1.55084e-07
-3.57556e-08
1.4767e-07
-5.71819e-08
1.5264e-07
-7.24661e-08
1.44059e-07
-8.728e-08
1.39427e-07
-1.00369e-07
1.32645e-07
-1.12904e-07
1.2647e-07
-1.25307e-07
1.20781e-07
-1.37857e-07
1.15899e-07
-1.51085e-07
1.1241e-07
-1.66699e-07
1.11751e-07
-1.86939e-07
1.14664e-07
-2.17984e-07
1.25397e-07
-2.66254e-07
1.42661e-07
-3.34325e-07
1.61331e-07
-4.427e-07
2.03196e-07
-5.15352e-07
6.5909e-08
-4.14351e-07
-2.45543e-07
-2.14261e-06
-2.34463e-08
1.39607e-07
-2.19321e-08
1.5357e-07
-3.72213e-08
1.62959e-07
-5.17409e-08
1.6716e-07
-6.81745e-08
1.60492e-07
-8.43494e-08
1.55602e-07
-1.00375e-07
1.48671e-07
-1.15349e-07
1.41443e-07
-1.29555e-07
1.34987e-07
-1.43359e-07
1.29703e-07
-1.57702e-07
1.26753e-07
-1.74624e-07
1.28673e-07
-1.95202e-07
1.35242e-07
-2.24202e-07
1.54396e-07
-2.69476e-07
1.87935e-07
-3.16396e-07
2.08251e-07
-3.76521e-07
2.63321e-07
-4.46762e-07
1.3615e-07
-1.63998e-07
-5.28307e-07
-2.30661e-06
4.49925e-08
9.46146e-08
-2.45473e-08
2.2311e-07
-6.42132e-08
2.02625e-07
-9.03173e-08
1.93264e-07
-1.05013e-07
1.75188e-07
-1.1679e-07
1.67379e-07
-1.25378e-07
1.57259e-07
-1.32697e-07
1.48762e-07
-1.39243e-07
1.41533e-07
-1.45319e-07
1.35779e-07
-1.47004e-07
1.28437e-07
-1.51841e-07
1.3351e-07
-1.45327e-07
1.28727e-07
-1.50776e-07
1.59846e-07
-1.69719e-07
2.06878e-07
-2.18142e-07
2.56674e-07
-3.39999e-07
3.85178e-07
-4.61876e-07
2.58027e-07
-1.63194e-07
-8.26989e-07
-2.4698e-06
1.44195e-07
-4.95802e-08
1.51009e-07
2.16296e-07
1.4116e-07
2.12474e-07
7.43711e-08
2.60053e-07
3.12603e-08
2.18299e-07
-1.77312e-08
2.1637e-07
-5.47879e-08
1.94315e-07
-8.47519e-08
1.78726e-07
-1.10342e-07
1.67122e-07
-1.29644e-07
1.55082e-07
-1.4185e-07
1.40643e-07
-1.53534e-07
1.45194e-07
-1.57327e-07
1.3252e-07
-1.59663e-07
1.62181e-07
-1.80534e-07
2.27749e-07
-1.77168e-07
2.53307e-07
-1.47127e-07
3.55137e-07
-1.29469e-07
2.4037e-07
7.46674e-08
-1.03113e-06
-2.39513e-06
-4.99507e-07
4.49927e-07
-5.81252e-07
2.9804e-07
-6.23096e-07
2.54318e-07
-5.86711e-07
2.23668e-07
-5.70455e-07
2.02043e-07
-5.27001e-07
1.72916e-07
-4.97557e-07
1.64871e-07
-4.57905e-07
1.39074e-07
-4.19987e-07
1.29205e-07
-3.92819e-07
1.27914e-07
-3.39444e-07
8.72682e-08
-3.14528e-07
1.20278e-07
-2.45415e-07
6.34072e-08
-1.863e-07
1.03066e-07
-4.91518e-08
9.06009e-08
1.41267e-07
6.28884e-08
4.35513e-07
6.0891e-08
7.66555e-07
-9.06723e-08
6.90619e-07
-9.5519e-07
-1.70451e-06
4.49927e-07
7.47967e-07
1.00228e-06
1.22595e-06
1.428e-06
1.60091e-06
1.76578e-06
1.90486e-06
2.03406e-06
2.16198e-06
2.24924e-06
2.36952e-06
2.43293e-06
2.536e-06
2.6266e-06
2.68949e-06
2.75038e-06
2.6597e-06
1.70451e-06
)
;

boundaryField
{
    movingWall
    {
        type            calculated;
        value           uniform 0;
    }
    fixedWalls
    {
        type            calculated;
        value           uniform 0;
    }
    frontAndBack
    {
        type            empty;
        value           nonuniform 0();
    }
}


// ************************************************************************* //
