/*--------------------------------*- C++ -*----------------------------------*\
| =========                 |                                                 |
| \\      /  F ield         | OpenFOAM: The Open Source CFD Toolbox           |
|  \\    /   O peration     | Version:  5.x                                   |
|   \\  /    A nd           | Web:      www.OpenFOAM.org                      |
|    \\/     M anipulation  |                                                 |
\*---------------------------------------------------------------------------*/
FoamFile
{
    version     2.0;
    format      ascii;
    class       surfaceScalarField;
    location    "6.3";
    object      phi;
}
// * * * * * * * * * * * * * * * * * * * * * * * * * * * * * * * * * * * * * //

dimensions      [0 3 -1 0 0 0 0];

internalField   nonuniform List<scalar> 
760
(
-8.94878e-08
8.94877e-08
-1.96489e-07
1.07001e-07
-3.41833e-07
1.45345e-07
-5.67094e-07
2.2526e-07
-9.4689e-07
3.79797e-07
-1.5442e-06
5.97306e-07
-2.18347e-06
6.39273e-07
-2.53404e-06
3.50567e-07
-2.72276e-06
1.88722e-07
-3.01172e-06
2.88965e-07
-3.1982e-06
1.86474e-07
-3.05042e-06
-1.47781e-07
-2.91542e-06
-1.34998e-07
-2.87397e-06
-4.14468e-08
-2.68258e-06
-1.91388e-07
-2.37206e-06
-3.10526e-07
-2.12092e-06
-2.51134e-07
-1.78043e-06
-3.40498e-07
-1.17896e-06
-6.0147e-07
-1.17896e-06
-7.4098e-08
1.63586e-07
-1.5458e-07
1.87483e-07
-2.41686e-07
2.32451e-07
-3.30343e-07
3.13917e-07
-3.96983e-07
4.46436e-07
-4.31218e-07
6.31541e-07
-5.80303e-07
7.88359e-07
-1.04425e-06
8.14517e-07
-1.60863e-06
7.53095e-07
-1.88588e-06
5.6622e-07
-1.96504e-06
2.65637e-07
-2.09648e-06
-1.63461e-08
-2.04763e-06
-1.83852e-07
-1.76006e-06
-3.29014e-07
-1.49895e-06
-4.525e-07
-1.33074e-06
-4.78731e-07
-1.2069e-06
-3.74971e-07
-1.05743e-06
-4.89977e-07
-7.62314e-07
-8.96581e-07
-1.94127e-06
-5.35662e-08
2.17152e-07
-1.08501e-07
2.42418e-07
-1.59323e-07
2.83273e-07
-1.95857e-07
3.50451e-07
-1.97293e-07
4.47872e-07
-1.39449e-07
5.73697e-07
-5.28772e-08
7.01787e-07
-8.34187e-09
7.69981e-07
1.48363e-10
7.44605e-07
-4.12417e-08
6.0761e-07
-1.61062e-07
3.85458e-07
-2.85982e-07
1.08574e-07
-3.37542e-07
-1.32292e-07
-3.38846e-07
-3.2771e-07
-3.53349e-07
-4.37997e-07
-3.54295e-07
-4.77785e-07
-3.39208e-07
-3.90058e-07
-3.38314e-07
-4.90871e-07
-3.12462e-07
-9.22433e-07
-2.25373e-06
-3.34377e-08
2.5059e-07
-6.58283e-08
2.74809e-07
-9.06231e-08
3.08068e-07
-9.94875e-08
3.59316e-07
-7.91354e-08
4.2752e-07
-1.22846e-08
5.06846e-07
1.05092e-07
5.84411e-07
2.47109e-07
6.27964e-07
3.79747e-07
6.11966e-07
4.61064e-07
5.26293e-07
4.81093e-07
3.65429e-07
4.53878e-07
1.35789e-07
3.84152e-07
-6.25658e-08
2.8867e-07
-2.32228e-07
1.54999e-07
-3.04327e-07
3.2762e-08
-3.55548e-07
-2.07189e-08
-3.36577e-07
-9.13855e-08
-4.20205e-07
-1.57889e-07
-8.5593e-07
-2.41162e-06
-1.65808e-08
2.67171e-07
-3.15318e-08
2.89759e-07
-3.86945e-08
3.15231e-07
-3.16586e-08
3.5228e-07
-2.08141e-09
3.97943e-07
5.78027e-08
4.46962e-07
1.52964e-07
4.8925e-07
2.73619e-07
5.07309e-07
3.96936e-07
4.88649e-07
5.02964e-07
4.20265e-07
5.60738e-07
3.07654e-07
5.52566e-07
1.43962e-07
4.73855e-07
1.61454e-08
3.79339e-07
-1.37712e-07
2.52782e-07
-1.7777e-07
1.61659e-07
-2.64425e-07
7.93626e-08
-2.54281e-07
1.27523e-08
-3.53594e-07
-9.89262e-08
-7.44251e-07
-2.51055e-06
-3.50087e-09
2.70671e-07
-5.74715e-09
2.92006e-07
-1.62387e-09
3.11107e-07
1.32627e-08
3.37393e-07
4.33867e-08
3.67819e-07
9.36028e-08
3.96746e-07
1.64703e-07
4.1815e-07
2.51839e-07
4.20173e-07
3.40471e-07
4.00017e-07
4.18193e-07
3.42543e-07
4.57696e-07
2.68152e-07
4.56095e-07
1.45563e-07
4.05933e-07
6.63068e-08
3.46319e-07
-7.80974e-08
2.46867e-07
-7.83179e-08
1.78216e-07
-1.95774e-07
8.52863e-08
-1.61351e-07
5.311e-08
-3.21418e-07
1.85321e-08
-7.09673e-07
-2.49201e-06
6.53179e-09
2.6414e-07
1.32503e-08
2.85287e-07
2.4074e-08
3.00284e-07
4.20063e-08
3.19461e-07
7.03248e-08
3.395e-07
1.1091e-07
3.56161e-07
1.63254e-07
3.65806e-07
2.24588e-07
3.58839e-07
2.84358e-07
3.40247e-07
3.38198e-07
2.88703e-07
3.64846e-07
2.41503e-07
3.74039e-07
1.36371e-07
3.3857e-07
1.01775e-07
2.96417e-07
-3.59443e-08
2.21505e-07
-3.40612e-09
1.68894e-07
-1.43162e-07
1.00881e-07
-9.33394e-08
5.3739e-08
-2.74276e-07
1.7022e-08
-6.72956e-07
-2.47499e-06
1.42888e-08
2.49851e-07
2.67463e-08
2.7283e-07
4.11291e-08
2.85901e-07
5.98393e-08
3.00751e-07
8.47185e-08
3.14621e-07
1.17462e-07
3.23417e-07
1.55903e-07
3.27365e-07
1.99126e-07
3.15616e-07
2.3865e-07
3.00723e-07
2.73668e-07
2.53685e-07
2.88143e-07
2.27028e-07
2.89718e-07
1.34796e-07
2.60017e-07
1.31476e-07
2.31239e-07
-7.16614e-09
1.74067e-07
5.37654e-08
1.28548e-07
-9.76429e-08
6.11659e-08
-2.59572e-08
2.28889e-08
-2.35999e-07
-1.67247e-08
-6.33343e-07
-2.49172e-06
2.28271e-08
2.27024e-07
4.16579e-08
2.53999e-07
5.87676e-08
2.68791e-07
7.51901e-08
2.84328e-07
9.4916e-08
2.94895e-07
1.17855e-07
3.00479e-07
1.45079e-07
3.00141e-07
1.74922e-07
2.85773e-07
2.02262e-07
2.73383e-07
2.27278e-07
2.28669e-07
2.39012e-07
2.15295e-07
2.4486e-07
1.28947e-07
2.3027e-07
1.46067e-07
2.02411e-07
2.06926e-08
1.61583e-07
9.45931e-08
1.14343e-07
-5.04031e-08
5.51194e-08
3.32667e-08
-9.27595e-10
-1.79952e-07
-3.86016e-08
-5.95669e-07
-2.53032e-06
3.15593e-08
1.95464e-07
4.85194e-08
2.37039e-07
6.25369e-08
2.54774e-07
7.77824e-08
2.69083e-07
9.43446e-08
2.78333e-07
1.15277e-07
2.79546e-07
1.35879e-07
2.79539e-07
1.56812e-07
2.64841e-07
1.74311e-07
2.55883e-07
1.87211e-07
2.15769e-07
1.91598e-07
2.10908e-07
1.83675e-07
1.3687e-07
1.6837e-07
1.61371e-07
1.41505e-07
4.7558e-08
1.12058e-07
1.2404e-07
8.01848e-08
-1.85297e-08
3.94808e-08
7.39707e-08
-1.0304e-08
-1.30167e-07
2.46418e-09
-6.08437e-07
-2.52785e-06
4.8321e-08
1.47143e-07
8.34821e-08
2.01878e-07
1.00084e-07
2.38172e-07
1.04023e-07
2.65143e-07
1.08652e-07
2.73704e-07
1.11519e-07
2.76678e-07
1.20816e-07
2.70242e-07
1.31886e-07
2.53772e-07
1.45894e-07
2.41875e-07
1.56637e-07
2.05026e-07
1.66786e-07
2.00758e-07
1.6852e-07
1.35137e-07
1.69498e-07
1.60394e-07
1.53596e-07
6.34594e-08
1.35932e-07
1.41704e-07
8.35725e-08
3.38301e-08
4.95265e-08
1.08017e-07
-2.2209e-08
-5.84313e-08
1.83499e-09
-6.32481e-07
-2.52602e-06
7.81183e-08
6.90251e-08
7.32402e-08
2.06756e-07
6.79885e-08
2.43423e-07
7.65526e-08
2.56579e-07
8.93173e-08
2.6094e-07
1.07402e-07
2.58594e-07
1.18642e-07
2.59002e-07
1.26648e-07
2.45765e-07
1.33025e-07
2.35497e-07
1.32403e-07
2.05648e-07
1.31903e-07
2.01257e-07
1.15324e-07
1.51716e-07
1.07616e-07
1.68102e-07
6.69919e-08
1.04083e-07
6.50878e-08
1.43608e-07
1.41054e-08
8.48125e-08
1.93705e-08
1.02752e-07
-1.71072e-08
-2.19536e-08
-5.87376e-08
-5.9085e-07
-2.58476e-06
1.33049e-07
-6.40244e-08
1.88579e-07
1.51227e-07
1.90393e-07
2.41609e-07
1.47446e-07
2.99526e-07
1.15139e-07
2.93247e-07
8.45899e-08
2.89143e-07
7.96334e-08
2.63959e-07
8.04457e-08
2.44953e-07
9.27094e-08
2.23234e-07
9.6296e-08
2.02062e-07
1.12974e-07
1.84579e-07
1.07931e-07
1.5676e-07
1.33374e-07
1.42659e-07
1.21449e-07
1.16009e-07
1.37406e-07
1.2765e-07
1.11863e-07
1.10356e-07
8.99246e-08
1.2469e-07
8.15011e-10
6.7156e-08
6.75052e-09
-5.96786e-07
-2.57801e-06
2.93079e-07
-3.57104e-07
1.38577e-07
3.05729e-07
1.08655e-07
2.71531e-07
1.35105e-07
2.73076e-07
1.41683e-07
2.86669e-07
1.43714e-07
2.87112e-07
1.35909e-07
2.71765e-07
1.26531e-07
2.54331e-07
1.22629e-07
2.27136e-07
1.10581e-07
2.14109e-07
1.05013e-07
1.90148e-07
8.37975e-08
1.77975e-07
6.68431e-08
1.59613e-07
2.68891e-08
1.55963e-07
3.1577e-09
1.51382e-07
-8.9398e-08
2.02911e-07
3.42367e-08
1.0552e-09
7.19389e-08
2.94539e-08
2.70635e-08
-5.51911e-07
-2.55094e-06
3.02089e-07
-6.59193e-07
2.63939e-07
3.43879e-07
8.79388e-08
4.47531e-07
-7.14356e-08
4.32451e-07
-1.16365e-07
3.31598e-07
-1.06406e-07
2.77152e-07
-7.19786e-08
2.37337e-07
-4.37565e-08
2.26109e-07
-1.20312e-08
1.9541e-07
1.59273e-10
2.01919e-07
2.33173e-08
1.6699e-07
1.34803e-08
1.87812e-07
6.13752e-08
1.11718e-07
4.63695e-09
2.12701e-07
1.30356e-07
2.56628e-08
1.47116e-07
1.86152e-07
8.57847e-08
6.2386e-08
-6.89605e-09
1.22135e-07
-2.18392e-08
-5.36967e-07
-2.57278e-06
1.35118e-08
-6.72705e-07
2.10563e-07
1.46827e-07
3.65819e-07
2.92276e-07
4.17151e-07
3.81118e-07
4.25001e-07
3.23749e-07
3.70961e-07
3.31192e-07
3.52428e-07
2.5587e-07
3.10677e-07
2.6786e-07
2.86266e-07
2.19821e-07
2.44067e-07
2.44118e-07
2.30744e-07
1.80312e-07
1.8941e-07
2.29146e-07
2.08867e-07
9.22604e-08
1.58031e-07
2.63537e-07
5.26649e-08
1.31029e-07
-3.50772e-08
2.73894e-07
7.2737e-08
-4.54282e-08
5.21639e-08
1.42708e-07
5.36372e-08
-5.38441e-07
-2.51915e-06
-2.83159e-07
-3.89546e-07
-5.72563e-07
4.36231e-07
-4.07306e-07
1.27019e-07
-3.49884e-07
3.23695e-07
-3.60768e-07
3.34634e-07
-3.05376e-07
2.758e-07
-3.31276e-07
2.8177e-07
-3.01e-07
2.37584e-07
-3.06151e-07
2.24972e-07
-2.8391e-07
2.21878e-07
-2.73306e-07
1.69708e-07
-2.40354e-07
1.96195e-07
-2.50096e-07
1.02002e-07
-2.5131e-07
2.64752e-07
-1.30136e-07
9.85467e-09
-2.37559e-07
3.81317e-07
9.93734e-08
-3.82361e-07
1.7309e-07
6.89908e-08
3.43212e-08
-3.99672e-07
-2.48482e-06
3.93809e-08
-4.28927e-07
3.83284e-07
9.23284e-08
2.51108e-07
2.59195e-07
3.35347e-07
2.39456e-07
3.88004e-07
2.81977e-07
4.64161e-07
1.99643e-07
5.24417e-07
2.21514e-07
5.83491e-07
1.7851e-07
6.35671e-07
1.72792e-07
6.47093e-07
2.10456e-07
6.7865e-07
1.38151e-07
6.57893e-07
2.16952e-07
6.5314e-07
1.06754e-07
5.47781e-07
3.70111e-07
6.51279e-07
-9.36428e-08
6.20027e-07
4.1257e-07
3.72075e-07
-1.3441e-07
1.90187e-07
2.50879e-07
2.60722e-07
-4.70207e-07
-2.2241e-06
-8.04192e-07
3.75265e-07
-9.56335e-07
2.44472e-07
-9.53804e-07
2.56665e-07
-8.87978e-07
1.7363e-07
-7.9051e-07
1.84509e-07
-7.25445e-07
1.34578e-07
-6.63088e-07
1.59157e-07
-6.12941e-07
1.28363e-07
-5.66818e-07
1.26669e-07
-4.95504e-07
1.39143e-07
-4.53433e-07
9.60791e-08
-3.61103e-07
1.24622e-07
-3.26114e-07
7.17651e-08
-1.01778e-07
1.45775e-07
-2.65197e-07
6.97761e-08
1.66747e-08
1.30698e-07
-8.87896e-08
-2.89454e-08
1.89497e-07
-2.74077e-08
6.60456e-07
-9.41166e-07
-1.56365e-06
3.75265e-07
6.19736e-07
8.76401e-07
1.05003e-06
1.23454e-06
1.36912e-06
1.52827e-06
1.65664e-06
1.78331e-06
1.92245e-06
2.01853e-06
2.14315e-06
2.21492e-06
2.36069e-06
2.43047e-06
2.56116e-06
2.53222e-06
2.50481e-06
1.56365e-06
)
;

boundaryField
{
    movingWall
    {
        type            calculated;
        value           uniform 0;
    }
    fixedWalls
    {
        type            calculated;
        value           uniform 0;
    }
    frontAndBack
    {
        type            empty;
        value           nonuniform 0();
    }
}


// ************************************************************************* //
