/*--------------------------------*- C++ -*----------------------------------*\
| =========                 |                                                 |
| \\      /  F ield         | OpenFOAM: The Open Source CFD Toolbox           |
|  \\    /   O peration     | Version:  5.x                                   |
|   \\  /    A nd           | Web:      www.OpenFOAM.org                      |
|    \\/     M anipulation  |                                                 |
\*---------------------------------------------------------------------------*/
FoamFile
{
    version     2.0;
    format      ascii;
    class       volScalarField;
    location    "18";
    object      p;
}
// * * * * * * * * * * * * * * * * * * * * * * * * * * * * * * * * * * * * * //

dimensions      [0 2 -2 0 0 0 0];

internalField   nonuniform List<scalar> 
400
(
2.15382e-09
-0.00081184
-0.00142521
-0.0018046
-0.00198296
-0.00207151
-0.00210049
-0.00212021
-0.0021294
-0.00213158
-0.00211188
-0.00207626
-0.00204942
-0.00204118
-0.0020142
-0.00193101
-0.00170348
-0.00136222
-0.000942599
0.000418102
-0.000878089
-0.00145164
-0.00180934
-0.0020091
-0.00208352
-0.00211396
-0.00211837
-0.00212112
-0.00212836
-0.00213659
-0.00213168
-0.00210765
-0.00207039
-0.00206761
-0.00207657
-0.002063
-0.00200257
-0.00186901
-0.0016645
-0.000645171
-0.00145234
-0.00180395
-0.00198417
-0.00207634
-0.00210381
-0.00211658
-0.00211418
-0.0021216
-0.00212836
-0.00213271
-0.00212536
-0.0020971
-0.0020747
-0.00206363
-0.00207262
-0.00201966
-0.0020353
-0.00197102
-0.00181813
-0.00137765
-0.00177275
-0.00200625
-0.00206607
-0.00211547
-0.00211887
-0.00212469
-0.00212341
-0.0021274
-0.00213286
-0.00213593
-0.00213498
-0.00211996
-0.00209912
-0.00208384
-0.00212525
-0.00213158
-0.00213979
-0.00202619
-0.00202682
-0.00180675
-0.00196322
-0.00208304
-0.00210736
-0.00212065
-0.00212136
-0.00212225
-0.00211967
-0.00212289
-0.0021276
-0.0021266
-0.00212329
-0.00210889
-0.00210091
-0.0021145
-0.00216489
-0.00217254
-0.0021619
-0.00209456
-0.00208277
-0.00197759
-0.00204898
-0.00213091
-0.00211101
-0.00213016
-0.00211893
-0.0021231
-0.00212274
-0.00212572
-0.00212913
-0.00213015
-0.00213727
-0.00213814
-0.00213162
-0.00209396
-0.00215761
-0.0021392
-0.00220048
-0.00211829
-0.00215707
-0.0020771
-0.00210045
-0.00215428
-0.00214929
-0.00214309
-0.00213388
-0.0021282
-0.00213073
-0.00212568
-0.00213814
-0.00212983
-0.00213651
-0.0021175
-0.00214284
-0.00208855
-0.0021358
-0.00214191
-0.00220562
-0.00213773
-0.00213667
-0.00211796
-0.00212585
-0.00216287
-0.00212952
-0.00213765
-0.00212059
-0.00211796
-0.00211488
-0.0021233
-0.00212162
-0.00212317
-0.00216262
-0.0021387
-0.00215821
-0.00216484
-0.00214715
-0.00212264
-0.00216201
-0.00212806
-0.00218082
-0.00209215
-0.00213989
-0.00216802
-0.00214854
-0.00214069
-0.00213399
-0.00211657
-0.00213145
-0.00211877
-0.00216144
-0.00216957
-0.0021725
-0.00213032
-0.00220643
-0.00211292
-0.00212422
-0.0021503
-0.00214023
-0.0021069
-0.00212273
-0.00204562
-0.00214056
-0.00215781
-0.00214613
-0.00212698
-0.00211675
-0.00210856
-0.00211021
-0.0021109
-0.00212694
-0.00215317
-0.00213323
-0.0021522
-0.0021497
-0.00225908
-0.00219192
-0.00216658
-0.00212218
-0.0021041
-0.0021243
-0.00208773
-0.00213091
-0.00214794
-0.0021332
-0.00212256
-0.00211055
-0.0021004
-0.00211224
-0.00211122
-0.00211612
-0.0021573
-0.00219891
-0.00224087
-0.00221861
-0.00239738
-0.00225735
-0.00218713
-0.00225527
-0.00213326
-0.00214385
-0.00212689
-0.0021032
-0.00210436
-0.00208542
-0.00208414
-0.00209365
-0.00208882
-0.00211379
-0.00213917
-0.00211147
-0.00217685
-0.00221543
-0.00225062
-0.0022226
-0.0022329
-0.00216914
-0.00209935
-0.00219429
-0.00211593
-0.00218659
-0.00206447
-0.00205461
-0.00208014
-0.00208407
-0.00208487
-0.00209125
-0.00208197
-0.00210629
-0.00211642
-0.00210138
-0.00215421
-0.00218274
-0.00223719
-0.002196
-0.00221842
-0.00227893
-0.00210815
-0.002176
-0.0020414
-0.00215972
-0.00195446
-0.0020147
-0.00203725
-0.00205188
-0.00202533
-0.00203606
-0.00209145
-0.00203521
-0.00203551
-0.00205225
-0.00210735
-0.00220142
-0.00225641
-0.002278
-0.00219479
-0.00227455
-0.00205546
-0.00207938
-0.0019376
-0.0020012
-0.00195228
-0.0019382
-0.00196709
-0.00200925
-0.00202015
-0.00203685
-0.00203364
-0.00201935
-0.00206266
-0.00204425
-0.0020755
-0.00218782
-0.00225088
-0.00226385
-0.00223425
-0.00224355
-0.00214309
-0.00208757
-0.00189771
-0.00217446
-0.00195809
-0.0018402
-0.00187727
-0.00195826
-0.00192933
-0.0019761
-0.00200675
-0.00197669
-0.00208204
-0.00206789
-0.00205347
-0.00213748
-0.00214066
-0.00214958
-0.00203298
-0.00203307
-0.00193583
-0.00215401
-0.00192277
-0.00193916
-0.00185886
-0.00168485
-0.00176935
-0.00185861
-0.00191621
-0.00191726
-0.00198779
-0.0019292
-0.00204839
-0.00213877
-0.00216447
-0.00218899
-0.00218333
-0.00213219
-0.00208457
-0.00205035
-0.00211649
-0.00210425
-0.00203318
-0.00206561
-0.00177991
-0.00147136
-0.00167321
-0.00177433
-0.0018524
-0.00187654
-0.00195013
-0.00192763
-0.00205201
-0.00214171
-0.00226664
-0.00223162
-0.0020701
-0.00213792
-0.00210205
-0.00202224
-0.0020215
-0.00194703
-0.00179994
-0.00162144
-0.00149483
-0.00117946
-0.00145771
-0.00164714
-0.00175955
-0.00180167
-0.00180775
-0.00178196
-0.00203081
-0.00233827
-0.00249395
-0.00228305
-0.00209252
-0.00220285
-0.0020385
-0.00200831
-0.00193814
-0.00194775
-0.0020113
-0.00196953
-0.000974672
-0.000846939
-0.00121983
-0.00150461
-0.00170687
-0.00181843
-0.00190691
-0.00194115
-0.00204004
-0.00216138
-0.00223193
-0.00218542
-0.00211332
-0.0020278
-0.00196243
-0.00194938
-0.00178739
-0.0018201
-0.00147205
-0.00080344
0.00109618
)
;

boundaryField
{
    movingWall
    {
        type            zeroGradient;
    }
    fixedWalls
    {
        type            zeroGradient;
    }
    frontAndBack
    {
        type            empty;
    }
}


// ************************************************************************* //
