/*--------------------------------*- C++ -*----------------------------------*\
| =========                 |                                                 |
| \\      /  F ield         | OpenFOAM: The Open Source CFD Toolbox           |
|  \\    /   O peration     | Version:  5.x                                   |
|   \\  /    A nd           | Web:      www.OpenFOAM.org                      |
|    \\/     M anipulation  |                                                 |
\*---------------------------------------------------------------------------*/
FoamFile
{
    version     2.0;
    format      ascii;
    class       surfaceScalarField;
    location    "18";
    object      phi;
}
// * * * * * * * * * * * * * * * * * * * * * * * * * * * * * * * * * * * * * //

dimensions      [0 3 -1 0 0 0 0];

internalField   nonuniform List<scalar> 
760
(
-1.38728e-06
1.38728e-06
-2.33909e-06
9.51811e-07
-2.77612e-06
4.37029e-07
-3.01694e-06
2.40821e-07
-3.0692e-06
5.22625e-08
-3.12153e-06
5.2329e-08
-3.09583e-06
-2.57043e-08
-3.11767e-06
2.18445e-08
-3.08545e-06
-3.222e-08
-3.09926e-06
1.38088e-08
-3.06442e-06
-3.48387e-08
-3.05976e-06
-4.65948e-09
-3.01295e-06
-4.68109e-08
-3.01502e-06
2.0733e-09
-2.99143e-06
-2.35939e-08
-2.95148e-06
-3.99451e-08
-2.82411e-06
-1.27371e-07
-2.37435e-06
-4.49759e-07
-1.50824e-06
-8.66111e-07
-1.50824e-06
-7.64502e-07
2.15178e-06
-1.17973e-06
1.36704e-06
-1.35375e-06
6.11048e-07
-1.39515e-06
2.82222e-07
-1.42892e-06
8.60263e-08
-1.42816e-06
5.15765e-08
-1.44509e-06
-8.77725e-09
-1.45957e-06
3.63258e-08
-1.49064e-06
-1.15652e-09
-1.4976e-06
2.07708e-08
-1.49274e-06
-3.97019e-08
-1.43825e-06
-5.91475e-08
-1.42022e-06
-6.48352e-08
-1.40931e-06
-8.84024e-09
-1.45684e-06
2.39386e-08
-1.46248e-06
-3.43083e-08
-1.42431e-06
-1.65543e-07
-1.51296e-06
-3.61108e-07
-1.14346e-06
-1.2356e-06
-2.65171e-06
-3.6389e-07
2.51567e-06
-5.65205e-07
1.56836e-06
-5.49479e-07
5.95322e-07
-5.46108e-07
2.78851e-07
-5.55911e-07
9.5829e-08
-5.65e-07
6.06651e-08
-6.19472e-07
4.56954e-08
-6.5994e-07
7.67934e-08
-7.1872e-07
5.76235e-08
-7.4016e-07
4.22111e-08
-7.50808e-07
-2.90536e-08
-7.41561e-07
-6.83948e-08
-7.65199e-07
-4.11966e-08
-7.9264e-07
1.86004e-08
-7.35855e-07
-3.28466e-08
-6.37504e-07
-1.3266e-07
-3.57729e-07
-4.45318e-07
-2.77776e-07
-4.4106e-07
-3.93361e-07
-1.12002e-06
-3.04507e-06
-2.18372e-07
2.73404e-06
-2.65189e-07
1.61517e-06
-2.23072e-07
5.53204e-07
-1.83234e-07
2.39014e-07
-1.93148e-07
1.05742e-07
-2.15224e-07
8.27419e-08
-2.66372e-07
9.68434e-08
-2.95295e-07
1.05716e-07
-3.24931e-07
8.72598e-08
-3.30267e-07
4.7547e-08
-3.49608e-07
-9.71228e-09
-4.12444e-07
-5.55936e-09
-4.19193e-07
-3.44476e-08
-4.98592e-07
9.80002e-08
-6.51511e-07
1.20072e-07
-6.82055e-07
-1.02116e-07
-6.45921e-07
-4.81452e-07
-4.00657e-07
-6.86324e-07
-2.33526e-07
-1.28715e-06
-3.27859e-06
-7.3552e-08
2.80759e-06
-1.13629e-07
1.65525e-06
-7.75047e-08
5.1708e-07
-2.34769e-08
1.84986e-07
-3.48293e-08
1.17095e-07
-7.11686e-08
1.19081e-07
-9.98241e-08
1.25499e-07
-1.20642e-07
1.26533e-07
-1.50643e-07
1.17261e-07
-1.78943e-07
7.58473e-08
-2.0054e-07
1.18844e-08
-1.97307e-07
-8.7921e-09
-1.42171e-07
-8.95841e-08
-2.18941e-07
1.74771e-07
-2.02205e-07
1.03336e-07
-1.94141e-07
-1.1018e-07
-1.86258e-07
-4.89335e-07
-2.0057e-08
-8.52525e-07
-4.86335e-08
-1.25857e-06
-3.32723e-06
-8.04271e-08
2.88802e-06
-9.04446e-08
1.66527e-06
-6.33147e-08
4.8995e-07
-2.56343e-08
1.47306e-07
-6.02839e-08
1.51744e-07
-6.19757e-08
1.20773e-07
-7.46574e-08
1.38181e-07
-1.02824e-07
1.54701e-07
-1.00741e-07
1.15177e-07
-1.0643e-07
8.15368e-08
-2.25034e-07
1.30489e-07
-2.97068e-07
6.32416e-08
-1.07373e-07
-2.7928e-07
-4.73077e-08
1.14706e-07
3.66152e-08
1.94133e-08
5.05982e-08
-1.24163e-07
-2.17767e-07
-2.20969e-07
-1.44674e-07
-9.25618e-07
-2.71726e-08
-1.37608e-06
-3.3544e-06
-6.07588e-09
2.8941e-06
-5.50085e-09
1.66469e-06
-1.94355e-08
5.03885e-07
-2.8697e-08
1.56567e-07
-2.71617e-09
1.25763e-07
-6.40494e-09
1.24462e-07
-1.91112e-08
1.50887e-07
-5.39627e-08
1.89552e-07
-1.05854e-07
1.67069e-07
-9.14644e-08
6.71468e-08
-6.6109e-08
1.05133e-07
-1.8127e-08
1.52595e-08
8.06994e-08
-3.78106e-07
-4.54021e-08
2.40807e-07
3.8635e-08
-6.46238e-08
1.41781e-07
-2.27309e-07
3.75047e-08
-1.16693e-07
1.18107e-07
-1.00622e-06
7.16608e-09
-1.26514e-06
-3.34723e-06
-2.01557e-08
2.91425e-06
6.6162e-09
1.63792e-06
2.92251e-08
4.81276e-07
4.68829e-08
1.3891e-07
2.88655e-08
1.43781e-07
-3.81383e-09
1.57141e-07
-9.37982e-08
2.40871e-07
-1.37592e-07
2.33345e-07
-1.57829e-07
1.87306e-07
-2.84373e-07
1.93691e-07
-3.03644e-07
1.24404e-07
-6.00755e-08
-2.28309e-07
-1.49948e-08
-4.23187e-07
-2.07068e-07
4.32881e-07
-1.69128e-07
-1.02563e-07
-3.13513e-08
-3.65086e-07
9.0775e-08
-2.38819e-07
8.8785e-08
-1.00423e-06
-3.60255e-08
-1.14033e-06
-3.38326e-06
4.88366e-09
2.90937e-06
1.67422e-08
1.62606e-06
1.88679e-08
4.7915e-07
-1.95754e-08
1.77353e-07
1.42323e-08
1.09973e-07
8.79813e-08
8.3392e-08
1.25856e-07
2.02997e-07
2.27428e-07
1.31773e-07
3.75879e-07
3.88556e-08
2.48278e-07
3.21292e-07
2.45991e-08
3.48083e-07
-5.03544e-08
-1.53355e-07
-1.43618e-07
-3.29923e-07
-2.58895e-07
5.48157e-07
4.95266e-08
-4.10985e-07
2.61222e-07
-5.76782e-07
1.5712e-07
-1.34717e-07
2.19027e-07
-1.06614e-06
3.21726e-08
-9.5347e-07
-3.35109e-06
2.11925e-08
2.88818e-06
5.87433e-08
1.58851e-06
5.70564e-08
4.80837e-07
1.06732e-07
1.27677e-07
1.12302e-07
1.04403e-07
1.22681e-07
7.30133e-08
1.85225e-07
1.40452e-07
1.1565e-07
2.01349e-07
-3.95159e-08
1.94021e-07
-1.99685e-07
4.81462e-07
-2.05609e-07
3.54006e-07
-2.23827e-07
-1.35137e-07
-3.05917e-07
-2.47834e-07
-5.25555e-07
7.67795e-07
-2.65333e-07
-6.71207e-07
-9.76203e-08
-7.44495e-07
-9.59144e-08
-1.36423e-07
-1.00936e-07
-1.06112e-06
-5.95841e-10
-1.05381e-06
-3.35168e-06
5.39611e-08
2.83421e-06
7.88149e-08
1.56366e-06
1.40854e-07
4.18798e-07
2.15775e-07
5.2756e-08
2.14659e-07
1.05519e-07
2.73632e-07
1.40408e-08
3.11447e-07
1.02636e-07
7.65353e-08
4.36261e-07
-1.8285e-07
4.53407e-07
-2.73718e-07
5.72329e-07
-2.39655e-07
3.19944e-07
-2.56012e-07
-1.1878e-07
-1.21e-07
-3.82845e-07
1.18974e-08
6.34898e-07
-7.18098e-08
-5.875e-07
-1.71521e-07
-6.44784e-07
-1.84334e-07
-1.23609e-07
-1.77706e-07
-1.06774e-06
-2.10427e-08
-1.21047e-06
-3.37273e-06
7.91788e-08
2.75504e-06
8.68233e-08
1.55602e-06
1.43479e-07
3.62142e-07
1.11214e-07
8.50207e-08
-1.30124e-08
2.29746e-07
4.01521e-08
-3.91237e-08
1.93722e-07
-5.09335e-08
2.19454e-07
4.10529e-07
1.40392e-07
5.32469e-07
5.57469e-08
6.56974e-07
-3.9164e-09
3.79607e-07
-1.73382e-07
5.06851e-08
-2.87763e-07
-2.68464e-07
2.50839e-08
3.22051e-07
1.65022e-08
-5.78918e-07
-1.9823e-07
-4.30052e-07
2.03689e-07
-5.25528e-07
1.48063e-07
-1.01212e-06
-3.78589e-08
-1.02455e-06
-3.41058e-06
6.03544e-08
2.69468e-06
1.14603e-07
1.50177e-06
1.83465e-08
4.58399e-07
-1.23086e-07
2.26453e-07
-1.03827e-07
2.10487e-07
-1.34767e-07
-8.18355e-09
-1.59499e-07
-2.62014e-08
3.18563e-08
2.19174e-07
1.99409e-07
3.64916e-07
2.03579e-07
6.52804e-07
9.38418e-08
4.89344e-07
1.40606e-08
1.30466e-07
-2.08499e-07
-4.5904e-08
4.93062e-08
6.42452e-08
2.8942e-07
-8.19032e-07
1.5587e-07
-2.96502e-07
3.39693e-07
-7.0935e-07
2.17686e-07
-8.90111e-07
5.27186e-08
-8.59585e-07
-3.35787e-06
1.43358e-07
2.55132e-06
1.82975e-07
1.46215e-06
1.65528e-07
4.75846e-07
1.0141e-07
2.90571e-07
1.73203e-08
2.94577e-07
-4.52668e-08
5.44036e-08
-5.7956e-08
-1.35123e-08
1.67763e-08
1.44442e-07
1.22992e-07
2.587e-07
3.57717e-07
4.18079e-07
3.05556e-07
5.41505e-07
1.8161e-07
2.54412e-07
1.0865e-07
2.70561e-08
3.07529e-07
-1.34634e-07
2.75945e-07
-7.87447e-07
3.59512e-07
-3.8007e-07
3.59754e-07
-7.09592e-07
3.07654e-08
-5.61122e-07
6.03195e-08
-8.89139e-07
-3.29755e-06
1.00692e-07
2.45063e-06
1.98345e-07
1.3645e-06
1.33674e-07
5.40516e-07
3.57074e-07
6.71711e-08
3.65642e-07
2.86008e-07
4.33134e-07
-1.30882e-08
5.81558e-07
-1.61937e-07
3.43358e-07
3.82642e-07
6.3954e-07
-3.74818e-08
8.0026e-07
2.57359e-07
8.81948e-07
4.59817e-07
8.97278e-07
2.39082e-07
8.92086e-07
3.22487e-08
1.07105e-06
-3.13593e-07
1.00027e-06
-7.16673e-07
8.99385e-07
-2.79184e-07
2.82321e-07
-9.2529e-08
-1.47748e-07
-1.31052e-07
-7.16239e-08
-9.65264e-07
-3.36917e-06
2.02064e-07
2.24857e-06
3.56757e-07
1.2098e-06
3.48312e-07
5.48961e-07
2.06974e-07
2.08509e-07
3.98221e-07
9.47607e-08
5.31155e-07
-1.46022e-07
4.33136e-07
-6.39175e-08
5.75856e-07
2.39922e-07
7.96965e-07
-2.58591e-07
1.01597e-06
3.83489e-08
1.04536e-06
4.30435e-07
1.17185e-06
1.12591e-07
1.13394e-06
7.01546e-08
8.51173e-07
-3.08248e-08
5.79398e-07
-4.44897e-07
-4.07122e-08
3.40926e-07
-1.62753e-07
2.95119e-08
3.0424e-07
-5.98046e-07
1.56965e-07
-8.17988e-07
-3.21221e-06
2.1431e-07
2.03426e-06
2.62869e-07
1.16125e-06
3.71179e-07
4.40651e-07
3.18446e-07
2.61241e-07
3.14923e-07
9.8284e-08
3.59855e-07
-1.90954e-07
4.52584e-07
-1.56646e-07
1.03262e-06
-3.40116e-07
1.10427e-06
-3.30241e-07
1.16316e-06
-2.05411e-08
1.11138e-06
4.82215e-07
1.02179e-06
2.02182e-07
9.92315e-07
9.96299e-08
5.19533e-07
4.41957e-07
1.56171e-07
-8.15346e-08
1.06211e-09
4.96035e-07
6.0473e-07
-5.74156e-07
3.47211e-07
-3.40527e-07
6.09836e-08
-5.3176e-07
-3.15122e-06
3.86132e-07
1.64813e-06
6.45141e-07
9.02237e-07
6.11241e-07
4.7455e-07
6.8632e-07
1.86163e-07
7.28927e-07
5.56767e-08
7.99747e-07
-2.61774e-07
9.32125e-07
-2.89024e-07
9.95014e-07
-4.03005e-07
8.83773e-07
-2.18999e-07
8.70136e-07
-6.90436e-09
1.07526e-06
2.77092e-07
1.11707e-06
1.60371e-07
1.1744e-06
4.23034e-08
1.16168e-06
4.54678e-07
1.19796e-06
-1.17814e-07
1.05812e-06
6.35872e-07
8.25031e-07
-3.41067e-07
1.63025e-07
3.21479e-07
3.4415e-07
-7.12886e-07
-2.80707e-06
5.2134e-07
1.12679e-06
7.92335e-07
6.31242e-07
9.0911e-07
3.57776e-07
8.86042e-07
2.0923e-07
7.3357e-07
2.08148e-07
3.71572e-07
1.00224e-07
-9.1476e-08
1.74024e-07
-6.55127e-07
1.60646e-07
-9.72797e-07
9.86698e-08
-1.00667e-06
2.69718e-08
-7.82652e-07
5.30705e-08
-6.30136e-07
7.85541e-09
-6.10245e-07
2.24118e-08
-2.89611e-07
1.34044e-07
-2.89937e-07
-1.17488e-07
1.33407e-07
2.12528e-07
-7.614e-08
-1.3152e-07
2.98138e-07
-5.27992e-08
7.87095e-07
-1.20184e-06
-2.01998e-06
1.12679e-06
1.75803e-06
2.1158e-06
2.32503e-06
2.53318e-06
2.63341e-06
2.80743e-06
2.96808e-06
3.06675e-06
3.09372e-06
3.14679e-06
3.15464e-06
3.17706e-06
3.3111e-06
3.19361e-06
3.40614e-06
3.27462e-06
3.22182e-06
2.01998e-06
)
;

boundaryField
{
    movingWall
    {
        type            calculated;
        value           uniform 0;
    }
    fixedWalls
    {
        type            calculated;
        value           uniform 0;
    }
    frontAndBack
    {
        type            empty;
        value           nonuniform 0();
    }
}


// ************************************************************************* //
