/*--------------------------------*- C++ -*----------------------------------*\
| =========                 |                                                 |
| \\      /  F ield         | OpenFOAM: The Open Source CFD Toolbox           |
|  \\    /   O peration     | Version:  5.x                                   |
|   \\  /    A nd           | Web:      www.OpenFOAM.org                      |
|    \\/     M anipulation  |                                                 |
\*---------------------------------------------------------------------------*/
FoamFile
{
    version     2.0;
    format      ascii;
    class       volVectorField;
    location    "18";
    object      U;
}
// * * * * * * * * * * * * * * * * * * * * * * * * * * * * * * * * * * * * * //

dimensions      [0 1 -1 0 0 0 0];

internalField   nonuniform List<vector> 
400
(
(-0.017739 0.0117459 0)
(-0.0430068 0.00703661 0)
(-0.0514861 0.00298522 0)
(-0.0585632 0.00106408 0)
(-0.0595234 -0.000927545 0)
(-0.0621838 -0.000541792 0)
(-0.0609758 -0.00180514 0)
(-0.0627615 -0.000823962 0)
(-0.0612998 -0.00161166 0)
(-0.0628328 -0.000659785 0)
(-0.0608918 -0.00127518 0)
(-0.0618017 -0.000676881 0)
(-0.0597562 -0.00158697 0)
(-0.0620593 -0.000775055 0)
(-0.0598806 -0.00174174 0)
(-0.0620399 -0.00164246 0)
(-0.0560622 -0.00382128 0)
(-0.0548238 -0.00698453 0)
(-0.0466582 -0.0126555 0)
(-0.00532462 -0.0200465 0)
(-0.0119462 0.0380603 0)
(-0.0220953 0.0268505 0)
(-0.0242669 0.0122217 0)
(-0.0287591 0.00728225 0)
(-0.0257034 0.00257969 0)
(-0.0306607 0.00233706 0)
(-0.0257576 0.000632158 0)
(-0.031933 0.00165375 0)
(-0.0260813 0.000295587 0)
(-0.0341128 0.00115083 0)
(-0.0260813 -0.00029653 0)
(-0.0341254 0.000405373 0)
(-0.0223139 -0.000485372 0)
(-0.0343383 0.000820924 0)
(-0.0230364 0.000546886 0)
(-0.0348611 -0.000451862 0)
(-0.0248695 -0.00246685 0)
(-0.0308805 -0.0138551 0)
(-0.0344401 -0.0267044 0)
(-0.00481755 -0.0467572 0)
(-0.00565186 0.0493066 0)
(-0.0108548 0.0296192 0)
(-0.010771 0.0134047 0)
(-0.010966 0.00477904 0)
(-0.0101227 0.00123039 0)
(-0.0124181 -5.28215e-05 0)
(-0.00964625 -0.000903623 0)
(-0.0154366 -0.000117516 0)
(-0.01101 -0.000334559 0)
(-0.0178886 -0.000233621 0)
(-0.012138 -0.00111711 0)
(-0.0173797 -0.00247282 0)
(-0.0124311 -0.00187696 0)
(-0.0176601 -0.00105898 0)
(-0.0151582 0.000644435 0)
(-0.0128969 -0.000443462 0)
(-0.0139801 -0.00310058 0)
(-0.000323588 0.00100016 0)
(-0.0118321 -0.0187886 0)
(-0.00151326 -0.057848 0)
(-0.00548312 0.053728 0)
(-0.00458838 0.034043 0)
(-0.00508197 0.0111831 0)
(-0.00424701 0.00648492 0)
(-0.00266277 0.00245621 0)
(-0.00525851 0.00233553 0)
(-0.00314945 0.00257143 0)
(-0.00754097 0.00301969 0)
(-0.00437619 0.00249827 0)
(-0.00861664 0.00178552 0)
(-0.00487345 -0.00018474 0)
(-0.00890565 -0.000564064 0)
(-0.0074276 3.24093e-05 0)
(-0.0087047 0.00174162 0)
(-0.0121569 -0.00217733 0)
(-0.0132488 -0.00563501 0)
(-0.0153209 -0.0158956 0)
(-0.00878509 -0.0179137 0)
(-0.00888002 -0.0282181 0)
(0.000967445 -0.0625093 0)
(-0.00162615 0.0566199 0)
(-0.00188133 0.0322891 0)
(-0.00221764 0.0111425 0)
(-0.000974149 0.00348468 0)
(0.000114016 0.00190971 0)
(-0.00156491 0.00112436 0)
(-0.00116579 0.00150703 0)
(-0.00292061 0.00141431 0)
(-0.00202867 0.00117462 0)
(-0.00389323 0.000278282 0)
(-0.00344421 -0.00011055 0)
(-0.00434172 0.00043691 0)
(-0.00329404 -0.0012125 0)
(-0.00220357 0.00184067 0)
(-0.00713381 0.00671329 0)
(-0.00066858 0.00155303 0)
(-0.00746789 -0.00239467 0)
(0.000643258 -0.0104454 0)
(-0.00169268 -0.0211272 0)
(0.000187219 -0.0652614 0)
(-0.00364836 0.0577333 0)
(-0.000114396 0.0345154 0)
(-0.00299754 0.0103964 0)
(0.000169331 0.00400846 0)
(-0.00104175 0.00299512 0)
(-0.00151915 0.00370829 0)
(-0.000886247 0.00340006 0)
(-0.00211396 0.00347236 0)
(-0.00208009 0.00342548 0)
(-0.00181914 0.00258785 0)
(-0.00260016 0.000487002 0)
(-0.00652105 -0.000914383 0)
(-0.00567937 -0.0026688 0)
(0.00191893 0.00564312 0)
(-0.00423211 -0.00233228 0)
(0.00602994 -0.00547586 0)
(-0.00446611 -0.0178294 0)
(-0.00317193 -0.0227877 0)
(-0.00344602 -0.0309536 0)
(0.00268417 -0.0662663 0)
(-7.80651e-05 0.0580817 0)
(-0.000280421 0.0326609 0)
(0.000134153 0.00826463 0)
(-0.000943818 0.00163154 0)
(-0.000150333 0.00270696 0)
(5.36404e-05 0.000904647 0)
(-0.000353731 0.0018523 0)
(-0.00031237 0.00279134 0)
(-0.0020494 0.000907126 0)
(-0.00191463 0.000692242 0)
(-0.00200697 0.00506771 0)
(-0.000339976 0.00378547 0)
(-0.000595867 -0.00812422 0)
(0.0043598 -0.000716311 0)
(-0.00653506 0.0032492 0)
(0.00834333 0.000139296 0)
(-0.00338587 0.00886328 0)
(0.00525241 -0.0143736 0)
(-0.000938442 -0.0219797 0)
(0.00129587 -0.0675048 0)
(-0.00258631 0.0585014 0)
(0.0015703 0.033902 0)
(-0.00118084 0.0128745 0)
(0.00214562 0.0049241 0)
(-7.62936e-05 0.00269401 0)
(0.00114369 0.00432325 0)
(-0.00126951 0.00459597 0)
(-0.00268294 0.00489262 0)
(-0.00262389 0.00630293 0)
(-0.00336512 0.00227797 0)
(-0.00876907 -0.00116276 0)
(-0.00256172 -0.00332583 0)
(-0.000107357 -0.00652551 0)
(-0.000542986 0.00935546 0)
(-0.00778972 -0.00612109 0)
(0.00154314 -0.00869016 0)
(-0.00310081 -0.013139 0)
(0.00725755 -0.0259129 0)
(-0.0043269 -0.0307413 0)
(0.00329333 -0.0670262 0)
(0.000352343 0.0581478 0)
(-0.000251281 0.0321556 0)
(0.0010661 0.00559097 0)
(-0.000314921 0.000361914 0)
(-0.000533739 0.00265083 0)
(0.0012179 0.00173019 0)
(0.00197266 0.00445297 0)
(0.003522 0.00426551 0)
(0.00492668 0.000488259 0)
(0.0106348 0.00479428 0)
(-0.00118425 0.00583423 0)
(0.00244508 -0.00527776 0)
(-0.00499564 -0.0115083 0)
(0.000127967 0.00963003 0)
(-0.0111717 0.00249167 0)
(0.0129657 -0.00651267 0)
(-0.00279739 0.00321256 0)
(0.00957835 -0.0143583 0)
(-0.00160212 -0.0128701 0)
(0.00321729 -0.065586 0)
(-0.00124745 0.0586414 0)
(0.00194899 0.0324378 0)
(0.000560978 0.0139933 0)
(0.00187388 0.00703691 0)
(0.00225317 0.00205267 0)
(0.00237907 0.00171977 0)
(0.0023592 0.00417222 0)
(0.00530714 0.00120956 0)
(-0.000797918 0.00134736 0)
(-0.00101238 0.00879142 0)
(-0.00638596 0.00914197 0)
(-0.00218147 -0.000502764 0)
(-0.00603454 -0.000427473 0)
(-0.00753074 0.0107746 0)
(-0.0119393 -0.0197137 0)
(0.00072552 -0.0161545 0)
(-0.00435262 -0.00794579 0)
(0.00052472 -0.0274478 0)
(-0.00495979 -0.0262328 0)
(0.00498261 -0.068549 0)
(0.000911283 0.0565352 0)
(0.00101698 0.0312126 0)
(0.00234964 0.00480393 0)
(0.00332699 -0.00225661 0)
(0.00528369 0.00191907 0)
(0.00360039 0.00122518 0)
(0.00689674 0.00116989 0)
(0.0059001 0.00700299 0)
(-0.00261718 0.00617713 0)
(-0.00507601 0.0106324 0)
(-0.00609726 0.00396615 0)
(-0.00390607 -0.00554085 0)
(-0.0051742 -0.0104896 0)
(-0.000804416 0.0178687 0)
(0.00157873 -0.00849032 0)
(-0.00419184 -0.0149247 0)
(-0.00369695 0.00150496 0)
(-0.00258675 -0.0155527 0)
(-0.00528886 -0.0153892 0)
(0.00458032 -0.0675021 0)
(0.000143504 0.0574698 0)
(0.00287539 0.0322933 0)
(0.000842593 0.0127567 0)
(0.00489152 0.00464603 0)
(-0.000673801 0.00249794 0)
(0.000268649 -0.000654334 0)
(0.00119542 0.00289117 0)
(0.00610205 0.00960733 0)
(0.00347466 0.0114888 0)
(0.00155598 0.0113759 0)
(0.000841926 0.0087149 0)
(-0.00106676 0.00112061 0)
(-0.00527167 -0.00419695 0)
(-0.00700128 0.00990015 0)
(0.0081798 -0.0130195 0)
(-0.00728983 -0.00923872 0)
(-0.00181514 -0.00570323 0)
(0.0110697 -0.0279381 0)
(-0.00610653 -0.0343308 0)
(0.00508981 -0.0688152 0)
(0.000915034 0.0525385 0)
(0.00125999 0.0287912 0)
(0.00344153 0.000980936 0)
(-0.00264541 -0.00166479 0)
(-0.00251943 0.0061496 0)
(-0.00130249 -0.000801344 0)
(-0.00446616 -0.00515848 0)
(-0.00211268 0.00696702 0)
(0.00361828 0.00932755 0)
(0.00375436 0.0155632 0)
(0.00484383 0.00737462 0)
(-0.00156554 0.00115173 0)
(0.00234153 -0.00567518 0)
(-0.0109263 0.00197914 0)
(0.0123761 -0.0120072 0)
(0.00085503 -0.00912212 0)
(0.00421283 -0.0164097 0)
(0.0111361 -0.0131087 0)
(-0.00402134 -0.00799709 0)
(0.00687675 -0.064117 0)
(0.0012486 0.0542572 0)
(0.00427615 0.031713 0)
(0.00266807 0.0178087 0)
(0.00446934 0.0114465 0)
(-0.000460421 0.00294536 0)
(0.0009181 0.000364089 0)
(-0.00234176 0.00434186 0)
(-0.00021327 0.00265926 0)
(0.000973803 0.0060476 0)
(0.00379147 0.0110575 0)
(0.00976157 0.01124 0)
(0.00255299 0.0036739 0)
(0.00425979 0.00338732 0)
(0.000854003 0.00087577 0)
(0.00975778 -0.0195115 0)
(0.00301842 -0.00165524 0)
(0.00963366 -0.0103441 0)
(0.00640971 -0.0210655 0)
(-0.00566008 -0.0235213 0)
(0.00852352 -0.0694489 0)
(0.000887789 0.0479966 0)
(0.00313297 0.0271083 0)
(0.00436009 0.00102098 0)
(0.00131748 -0.000723234 0)
(0.0124744 0.00801577 0)
(0.00253277 0.00214676 0)
(0.0155322 -0.00501428 0)
(0.00653972 0.00251457 0)
(0.00811812 0.00404859 0)
(0.0172076 0.00567838 0)
(0.0133548 0.0106601 0)
(0.0215709 0.00588117 0)
(0.0148222 -0.00234989 0)
(0.022166 -0.00718634 0)
(0.0187889 -0.0135964 0)
(0.0230506 -0.0153475 0)
(0.0111109 -0.0187898 0)
(0.00200935 -0.00103964 0)
(-0.00962016 -0.0156374 0)
(0.00776968 -0.0657373 0)
(0.00187592 0.0486994 0)
(0.00635103 0.0269998 0)
(0.00689286 0.0202334 0)
(0.00815497 0.00388595 0)
(-0.000490351 0.00397284 0)
(0.0159313 -0.00275112 0)
(0.00674911 -0.00115908 0)
(0.00909491 0.0122645 0)
(0.0151612 -0.00543795 0)
(0.0172289 0.00542531 0)
(0.021602 0.00888187 0)
(0.0214679 0.00477603 0)
(0.0236822 0.00397782 0)
(0.0240285 -0.00356146 0)
(0.00813246 -0.0126486 0)
(0.0171923 0.00610909 0)
(-0.0196222 0.0145176 0)
(0.0146288 -0.00422272 0)
(-0.00387975 -0.0191777 0)
(0.0108854 -0.067179 0)
(0.000333915 0.0410836 0)
(0.00766855 0.0221638 0)
(0.00243914 0.00234823 0)
(0.0119714 0.00371124 0)
(0.00164566 2.7082e-05 0)
(0.00984428 -0.00323287 0)
(0.00602107 -0.00119361 0)
(0.0106909 -0.0020361 0)
(0.0302685 -0.00569653 0)
(0.0147987 -0.00424917 0)
(0.031177 0.00733552 0)
(0.0125346 -0.00108408 0)
(0.0295133 -0.00149167 0)
(0.00974837 0.00188894 0)
(0.0118604 -0.006732 0)
(-0.00633766 0.0053737 0)
(0.00639707 -0.0133389 0)
(0.0191682 -0.0219462 0)
(-0.00700131 -0.0174257 0)
(0.0103075 -0.0646982 0)
(0.00250105 0.0390917 0)
(0.0114273 0.0225388 0)
(0.0153769 0.0145864 0)
(0.00857329 0.00713282 0)
(0.0200305 0.00358371 0)
(0.00767897 -0.00497275 0)
(0.0262941 -0.00582815 0)
(0.00909835 -0.0122163 0)
(0.0319733 -0.00620653 0)
(0.00153952 0.00365005 0)
(0.0341659 0.012524 0)
(0.0115353 0.0102346 0)
(0.0304867 0.00566363 0)
(0.0171966 0.0151708 0)
(0.0308943 0.00380353 0)
(0.015498 0.0162034 0)
(0.0258065 -0.00788156 0)
(0.00821089 0.0106391 0)
(-0.00117909 -4.30849e-05 0)
(0.0156446 -0.0630834 0)
(0.00335517 0.0280873 0)
(0.0155623 0.0148962 0)
(0.0160721 0.0048658 0)
(0.0204154 0.000800645 0)
(0.0158293 -0.000988701 0)
(0.0137514 -0.00416184 0)
(0.00261731 -0.00413177 0)
(-0.00691104 -0.00327038 0)
(-0.0208653 -0.00411233 0)
(-0.0200776 -0.00423336 0)
(-0.0174339 -0.0023777 0)
(-0.0118107 -0.00447196 0)
(-0.0160856 -0.00448364 0)
(-0.00608982 0.00381253 0)
(-0.00649036 -0.00885725 0)
(-0.00427841 0.00819548 0)
(0.00934011 -0.0071625 0)
(-0.0128927 -0.000567144 0)
(0.0225774 -0.0342067 0)
(0.0144428 -0.057787 0)
(0.00799192 0.0198487 0)
(0.033901 0.0121501 0)
(0.0359628 0.0105053 0)
(0.0481357 0.00786575 0)
(0.046434 0.00864629 0)
(0.0546944 0.00734482 0)
(0.0530174 0.00982035 0)
(0.0578562 0.00936564 0)
(0.058967 0.00910001 0)
(0.0617663 0.00595124 0)
(0.0639179 0.005011 0)
(0.0614991 0.00473959 0)
(0.0666437 0.00581237 0)
(0.0616758 0.00204317 0)
(0.06725 0.00463758 0)
(0.0649295 0.00125068 0)
(0.0652255 0.00271942 0)
(0.0664927 -0.000383301 0)
(0.0546261 -0.00584224 0)
(0.037425 -0.0109249 0)
)
;

boundaryField
{
    movingWall
    {
        type            fixedValue;
        value           uniform (1 0 0);
    }
    fixedWalls
    {
        type            noSlip;
    }
    frontAndBack
    {
        type            empty;
    }
}


// ************************************************************************* //
