/*--------------------------------*- C++ -*----------------------------------*\
| =========                 |                                                 |
| \\      /  F ield         | OpenFOAM: The Open Source CFD Toolbox           |
|  \\    /   O peration     | Version:  5.x                                   |
|   \\  /    A nd           | Web:      www.OpenFOAM.org                      |
|    \\/     M anipulation  |                                                 |
\*---------------------------------------------------------------------------*/
FoamFile
{
    version     2.0;
    format      ascii;
    class       volScalarField;
    location    "13.1";
    object      p;
}
// * * * * * * * * * * * * * * * * * * * * * * * * * * * * * * * * * * * * * //

dimensions      [0 2 -2 0 0 0 0];

internalField   nonuniform List<scalar> 
400
(
-1.4503e-08
-0.000476901
-0.00084126
-0.00107668
-0.00116541
-0.00122189
-0.0012328
-0.0012386
-0.00124276
-0.00124244
-0.00123731
-0.00123203
-0.00121804
-0.00120932
-0.00121433
-0.00116453
-0.00102837
-0.000764858
-0.00062412
0.000280786
-0.00055055
-0.000881145
-0.00109058
-0.0012041
-0.00123974
-0.00125033
-0.00124113
-0.00124235
-0.00123284
-0.00123572
-0.00124509
-0.00122689
-0.00124295
-0.00121077
-0.00124697
-0.00121521
-0.00119353
-0.0010722
-0.00105949
-0.000429653
-0.000845469
-0.00111773
-0.00115408
-0.00124137
-0.00123997
-0.00123934
-0.00125248
-0.00123857
-0.00124885
-0.00123528
-0.00124351
-0.0012272
-0.0012353
-0.00121898
-0.00123906
-0.00121201
-0.00119373
-0.00112751
-0.00108987
-0.000829292
-0.00104032
-0.00118832
-0.00122789
-0.00123569
-0.0012534
-0.00124414
-0.00124952
-0.00124358
-0.0012453
-0.00123579
-0.00124186
-0.00122477
-0.00124042
-0.00121522
-0.00123767
-0.00121646
-0.00119935
-0.00116812
-0.00123013
-0.00107116
-0.00116633
-0.00122453
-0.00124487
-0.00123854
-0.00124691
-0.00124354
-0.00125067
-0.00124519
-0.00124882
-0.00123718
-0.00124111
-0.00122588
-0.00123687
-0.00121934
-0.00123201
-0.00121406
-0.00121726
-0.00119297
-0.00118225
-0.00112747
-0.00120778
-0.00122944
-0.00125152
-0.00123675
-0.00125177
-0.00124882
-0.00125742
-0.00125253
-0.00125318
-0.00124222
-0.00123854
-0.001228
-0.00123384
-0.00121712
-0.00122624
-0.0012072
-0.00122244
-0.0011837
-0.00121856
-0.00117072
-0.00123969
-0.0012234
-0.00125527
-0.00124393
-0.00125427
-0.00125825
-0.00126429
-0.00126258
-0.00126081
-0.00124763
-0.00123851
-0.00123133
-0.00123829
-0.00122527
-0.00123622
-0.00122389
-0.00122617
-0.00118875
-0.0012102
-0.00117038
-0.00123867
-0.00123697
-0.00125229
-0.00125698
-0.00126764
-0.00127649
-0.00128609
-0.00128235
-0.00127505
-0.00126065
-0.00123717
-0.00123086
-0.00123284
-0.00121982
-0.00123193
-0.00120919
-0.00123401
-0.00118544
-0.00120853
-0.00118624
-0.0012485
-0.00126809
-0.00127282
-0.001281
-0.00129268
-0.00130516
-0.00131507
-0.00131304
-0.00129986
-0.00128152
-0.00124885
-0.00123894
-0.00124989
-0.00123332
-0.00124438
-0.00123873
-0.00125154
-0.00119783
-0.00124421
-0.00118384
-0.00130348
-0.00128927
-0.00129303
-0.00129058
-0.00132015
-0.00134772
-0.00137267
-0.00136798
-0.00133092
-0.00130584
-0.00126065
-0.00122711
-0.00124506
-0.00122157
-0.00124311
-0.00122243
-0.00125199
-0.00119517
-0.00119105
-0.0012047
-0.00129328
-0.00130052
-0.00130308
-0.00133085
-0.00137275
-0.00143879
-0.00148776
-0.00145609
-0.00139016
-0.00132793
-0.00128292
-0.00124329
-0.00127305
-0.00126199
-0.00129456
-0.00125661
-0.00127195
-0.00123048
-0.00124395
-0.00122806
-0.00130992
-0.0013139
-0.00133378
-0.00137354
-0.00149982
-0.00165036
-0.00176315
-0.00173927
-0.00156943
-0.00141
-0.0013052
-0.00124207
-0.00126504
-0.00123709
-0.00129882
-0.0012474
-0.0012547
-0.00121058
-0.00122386
-0.00120086
-0.00132507
-0.00133604
-0.00134422
-0.00143423
-0.00162599
-0.00185099
-0.00200113
-0.00198078
-0.00177512
-0.00151892
-0.00133141
-0.00126349
-0.00130552
-0.00128992
-0.00134545
-0.00128426
-0.00133214
-0.00121681
-0.00128863
-0.00114204
-0.00128413
-0.00132399
-0.00135333
-0.0014466
-0.00165381
-0.00191626
-0.00205659
-0.00202283
-0.00181784
-0.00157397
-0.00132609
-0.00128802
-0.00130312
-0.00126137
-0.0012551
-0.00117772
-0.00120984
-0.00108779
-0.00111606
-0.00107399
-0.00122657
-0.00125785
-0.00128407
-0.00136696
-0.00160147
-0.00176881
-0.00191409
-0.00192166
-0.00173402
-0.00150923
-0.00132397
-0.00137216
-0.00128402
-0.00130507
-0.00139357
-0.00129166
-0.00137894
-0.00120212
-0.00128429
-0.00110395
-0.00107668
-0.00111918
-0.00117265
-0.00123161
-0.00139112
-0.00153327
-0.00163481
-0.00165662
-0.0015689
-0.00137794
-0.0013197
-0.00135765
-0.00133103
-0.00137052
-0.00142212
-0.00128046
-0.00108535
-0.00102123
-0.00110824
-0.00108288
-0.00094953
-0.00105939
-0.00107021
-0.00111639
-0.00121997
-0.00138075
-0.00144255
-0.001511
-0.00144478
-0.00124386
-0.00131748
-0.00139485
-0.00153841
-0.00148859
-0.00123688
-0.00123744
-0.00125079
-0.00115724
-0.00130896
-0.00105286
-0.000765184
-0.000875146
-0.000931836
-0.00099923
-0.00108114
-0.00118994
-0.00125842
-0.00137411
-0.0014768
-0.00146437
-0.00147054
-0.00154959
-0.00160457
-0.00133229
-0.00114532
-0.0011563
-0.00114464
-0.00103147
-0.00105258
-0.000749517
-0.000560064
-0.000740624
-0.000814971
-0.000869043
-0.000923063
-0.000954694
-0.000971457
-0.00124885
-0.00169355
-0.00183216
-0.00163591
-0.00151746
-0.00157314
-0.00113505
-0.00122712
-0.00119613
-0.00106716
-0.0013789
-0.000874709
-0.000545563
-0.000497081
-0.000691442
-0.000762375
-0.000845851
-0.000970672
-0.00117282
-0.00129148
-0.00136513
-0.0015132
-0.00159178
-0.00152684
-0.00134947
-0.00115991
-0.00102899
-0.00101638
-0.00107164
-0.00116308
-0.00108556
-0.000327822
0.00116501
)
;

boundaryField
{
    movingWall
    {
        type            zeroGradient;
    }
    fixedWalls
    {
        type            zeroGradient;
    }
    frontAndBack
    {
        type            empty;
    }
}


// ************************************************************************* //
