/*--------------------------------*- C++ -*----------------------------------*\
| =========                 |                                                 |
| \\      /  F ield         | OpenFOAM: The Open Source CFD Toolbox           |
|  \\    /   O peration     | Version:  5.x                                   |
|   \\  /    A nd           | Web:      www.OpenFOAM.org                      |
|    \\/     M anipulation  |                                                 |
\*---------------------------------------------------------------------------*/
FoamFile
{
    version     2.0;
    format      ascii;
    class       volVectorField;
    location    "13.1";
    object      U;
}
// * * * * * * * * * * * * * * * * * * * * * * * * * * * * * * * * * * * * * //

dimensions      [0 1 -1 0 0 0 0];

internalField   nonuniform List<vector> 
400
(
(-0.0149313 0.0061786 0)
(-0.0304272 0.00878657 0)
(-0.0405717 0.000659689 0)
(-0.0441855 0.00248359 0)
(-0.0465526 -0.00080557 0)
(-0.0477027 -0.000909397 0)
(-0.0470754 -0.000797 0)
(-0.0487516 -0.0010231 0)
(-0.0469015 -0.00061337 0)
(-0.0500101 -0.000157952 0)
(-0.0465725 -0.000788709 0)
(-0.0505625 -0.000425855 0)
(-0.0462681 -0.00181226 0)
(-0.0493951 -0.000698713 0)
(-0.0471313 -0.000583117 0)
(-0.0487266 -0.00118551 0)
(-0.0444934 -0.00186661 0)
(-0.0402801 -0.00498224 0)
(-0.0402024 -0.0090636 0)
(-0.000622027 -0.0134801 0)
(-0.0108615 0.0315465 0)
(-0.0173041 0.0176209 0)
(-0.0204352 0.0108039 0)
(-0.0226014 0.00522194 0)
(-0.0180025 0.00190882 0)
(-0.0244391 0.00223611 0)
(-0.0159385 0.000899216 0)
(-0.0253002 0.00107443 0)
(-0.0148607 0.00102703 0)
(-0.0240799 0.000441444 0)
(-0.0159593 0.00136147 0)
(-0.0212405 -2.7737e-05 0)
(-0.0184484 0.00116095 0)
(-0.0200828 -0.000852392 0)
(-0.02256 0.00032044 0)
(-0.0185648 -0.002078 0)
(-0.0233297 -0.00255112 0)
(-0.0129685 -0.0103456 0)
(-0.0296288 -0.0219691 0)
(-0.00327575 -0.0385111 0)
(-0.00382534 0.0384255 0)
(-0.008885 0.0252318 0)
(-0.00548218 0.00770661 0)
(-0.0104445 0.0029433 0)
(-0.00266488 -0.000134671 0)
(-0.00942022 -0.00107902 0)
(-0.00314083 -0.0014275 0)
(-0.007304 -0.00125788 0)
(-0.00463852 -0.00176293 0)
(-0.00515109 -0.000552699 0)
(-0.00616069 -0.00140566 0)
(-0.00326661 -0.000590767 0)
(-0.00825526 0.000240321 0)
(-0.00249479 0.00025385 0)
(-0.011 0.000850406 0)
(-0.00144688 -0.00227183 0)
(-0.0112759 -0.00252212 0)
(0.00245872 -0.00126072 0)
(-0.0073529 -0.00403927 0)
(0.0013389 -0.0438206 0)
(-0.000525144 0.040268 0)
(-0.00609258 0.023477 0)
(-0.000533998 0.00786603 0)
(-0.00498513 0.00397676 0)
(-0.00141915 0.000321647 0)
(-0.00488131 0.0015301 0)
(-0.00347372 1.84611e-05 0)
(-0.00537042 0.00144122 0)
(-0.00515964 0.000139501 0)
(-0.00512721 0.0010287 0)
(-0.00586291 0.000484223 0)
(-0.00399334 0.00114602 0)
(-0.00640944 0.00120323 0)
(-0.00138036 0.000735824 0)
(-0.00559308 0.000354998 0)
(0.000668113 -0.00353464 0)
(-0.00179037 -0.00574813 0)
(-0.00187105 -0.0167479 0)
(-0.00944465 -0.0234603 0)
(0.00224741 -0.0494906 0)
(0.00035553 0.0450145 0)
(-0.00294774 0.0247836 0)
(5.61312e-05 0.00788733 0)
(-0.000976732 0.00253412 0)
(-0.00201631 0.000666877 0)
(-0.00384392 0.000460706 0)
(-0.00443367 -0.000405827 0)
(-0.00482639 -7.78554e-05 0)
(-0.00522547 -0.00149673 0)
(-0.00372953 -0.000706402 0)
(-0.00555606 -0.0016156 0)
(-0.000915015 -0.00124223 0)
(-0.00490841 -0.00100473 0)
(0.00204182 -0.00188265 0)
(-0.00298654 -0.000229955 0)
(0.00383524 -0.00636833 0)
(-0.00248257 8.95324e-05 0)
(0.00479594 0.00427507 0)
(-0.00178215 -0.00175647 0)
(0.00335933 -0.0481992 0)
(0.000633401 0.0430474 0)
(-0.00151754 0.0251361 0)
(0.00110782 0.0053738 0)
(-0.0015309 0.00612012 0)
(-0.00246055 0.00335605 0)
(-0.00448431 0.00323216 0)
(-0.00509547 0.00153543 0)
(-0.00550632 0.00144996 0)
(-0.0061 -0.0001508 0)
(-0.00468271 0.000555985 0)
(-0.0063549 -0.00140721 0)
(-0.00207628 -0.000261294 0)
(-0.00578029 -0.000998192 0)
(-1.44471e-05 -0.00139032 0)
(-0.00466412 -0.00105692 0)
(0.00037512 -0.0039399 0)
(-0.00704979 -0.00586365 0)
(0.00427886 -0.0170616 0)
(-0.00646687 -0.0246917 0)
(0.00362691 -0.052483 0)
(0.000237512 0.0444601 0)
(-0.000196853 0.0241056 0)
(-0.00159208 0.00823162 0)
(-0.00198062 0.00524324 0)
(-0.00304687 0.00465736 0)
(-0.00509332 0.00260562 0)
(-0.00610835 0.00147178 0)
(-0.00610217 0.000428165 0)
(-0.00668729 -0.00167836 0)
(-0.0047441 -0.000997514 0)
(-0.00681968 -0.00381216 0)
(-0.000384526 -0.00260996 0)
(-0.00567951 -0.00256341 0)
(0.00282859 -0.00414189 0)
(-0.0040459 -0.000135203 0)
(0.00577336 -0.00576981 0)
(-0.0016195 -0.00299564 0)
(0.00392445 0.00184856 0)
(-0.00270362 0.0018036 0)
(0.00407653 -0.0483269 0)
(-0.000927499 0.0445215 0)
(0.000156256 0.0252097 0)
(-2.42637e-05 0.00795389 0)
(-0.00265824 0.00720812 0)
(-0.00565678 0.00642458 0)
(-0.00621935 0.00584024 0)
(-0.00812025 0.00271007 0)
(-0.00786199 0.00150315 0)
(-0.00815283 -0.000935466 0)
(-0.00700023 0.000211306 0)
(-0.00757779 -0.00502306 0)
(-0.00249579 -0.00171792 0)
(-0.00656799 -0.00315948 0)
(-0.00101868 -0.00284765 0)
(-0.00788429 -0.00331214 0)
(0.00368982 -0.0057011 0)
(-0.00829802 -0.00321565 0)
(0.00395376 -0.0157064 0)
(-0.00656975 -0.0244097 0)
(0.00450832 -0.054295 0)
(-0.00127991 0.0427245 0)
(-0.000173055 0.0236322 0)
(-0.00233951 0.0103345 0)
(-0.00474269 0.0101258 0)
(-0.00436784 0.00847024 0)
(-0.00802689 0.00483819 0)
(-0.00889577 0.00405769 0)
(-0.00861101 0.000221338 0)
(-0.00843665 -0.00265873 0)
(-0.00860663 -0.00125794 0)
(-0.00581443 -0.00928956 0)
(-0.00157251 -0.00429203 0)
(-0.0056255 -0.00402966 0)
(0.000117927 -0.00443853 0)
(-0.00717596 -0.00447867 0)
(0.00517769 -0.00772743 0)
(-0.00485051 -0.00261639 0)
(0.00560954 -0.00183234 0)
(-0.00440519 -8.60781e-06 0)
(0.00435912 -0.0484712 0)
(-0.000627228 0.0462674 0)
(-0.000437801 0.027571 0)
(-0.000118544 0.0133645 0)
(-0.00348483 0.010039 0)
(-0.0068695 0.0104596 0)
(-0.0109605 0.0106493 0)
(-0.0137859 0.00374739 0)
(-0.0124332 0.00108786 0)
(-0.01187 -0.00100469 0)
(-0.00964841 -0.00169301 0)
(-0.00341131 -0.0121267 0)
(-0.00422316 -0.00152464 0)
(-0.00383077 -0.0032111 0)
(-0.0037855 -0.00119735 0)
(-0.00696646 -0.00687218 0)
(-0.00445891 -0.0067321 0)
(-0.0108555 -0.00268864 0)
(0.00189517 -0.0155173 0)
(-0.00563003 -0.0199512 0)
(0.00551537 -0.0551647 0)
(-0.00152178 0.046356 0)
(0.000780657 0.0218288 0)
(-0.00162487 0.0135784 0)
(-0.00451892 0.014795 0)
(-0.0118667 0.0161742 0)
(-0.0174146 0.0116246 0)
(-0.0204291 0.00676771 0)
(-0.0187315 -0.00124044 0)
(-0.0146091 -0.00634237 0)
(-0.00743572 -0.00799225 0)
(0.000189517 -0.0155587 0)
(-0.00145915 -0.00560125 0)
(0.000385106 -0.00424253 0)
(-0.0030808 -0.00353608 0)
(-0.00525461 -0.00372205 0)
(-0.00462658 -0.00719561 0)
(-0.00679334 -0.00800773 0)
(0.000304003 -0.009875 0)
(-0.00508266 -0.00636808 0)
(0.0039786 -0.0505779 0)
(0.000713774 0.0433233 0)
(-0.000444646 0.0278013 0)
(-0.00287701 0.0174567 0)
(-0.00704443 0.0216201 0)
(-0.0151703 0.0209222 0)
(-0.0169491 0.0168576 0)
(-0.0223539 0.00511787 0)
(-0.0174902 -0.00568296 0)
(-0.0143857 -0.0149576 0)
(-0.00715801 -0.0174524 0)
(0.00071579 -0.0170148 0)
(-0.00187707 -0.00138033 0)
(0.00349244 -7.4832e-05 0)
(0.000523377 0.00409047 0)
(0.00118853 -0.00261642 0)
(-0.00273964 -0.00521847 0)
(-0.000263326 -0.00476897 0)
(-0.00340656 -0.0161779 0)
(-0.00458206 -0.0200548 0)
(0.00541821 -0.0548801 0)
(-0.0039098 0.048453 0)
(0.00265754 0.0251139 0)
(-0.00161882 0.0218202 0)
(-0.00350148 0.0236265 0)
(-0.00852711 0.0257387 0)
(-0.00682655 0.0183525 0)
(-0.0082374 0.00794492 0)
(-0.00628879 -0.00696282 0)
(-0.00374175 -0.0185614 0)
(-0.00127805 -0.0245207 0)
(0.00627674 -0.0216597 0)
(0.0019333 -0.009626 0)
(0.00908341 -0.00674706 0)
(0.0107075 -0.00271877 0)
(0.00894387 -0.000627594 0)
(0.0127477 -0.00841582 0)
(0.00520457 -0.00879056 0)
(0.011132 -0.00896488 0)
(-0.00480954 -0.0184403 0)
(0.00432462 -0.0502811 0)
(0.00137642 0.0435382 0)
(0.00117182 0.0260954 0)
(0.00177464 0.0215242 0)
(0.00294379 0.0287094 0)
(0.00143612 0.0249323 0)
(0.00214128 0.0174515 0)
(0.00489994 0.00644116 0)
(0.0094025 -0.00746619 0)
(0.00936314 -0.0180866 0)
(0.00862136 -0.0281676 0)
(0.0120802 -0.018332 0)
(0.00441527 -0.0044352 0)
(0.00338679 -0.00640464 0)
(-0.00256845 0.00231499 0)
(-0.00138496 -0.000636524 0)
(0.000407402 -0.00205105 0)
(-0.00632272 0.00276915 0)
(0.00731526 -0.00588084 0)
(-0.00546783 -0.00633903 0)
(0.00842796 -0.0528824 0)
(-0.000839399 0.0451453 0)
(0.00684905 0.0258803 0)
(0.00590365 0.0226078 0)
(0.00731577 0.0249744 0)
(0.0133414 0.0262025 0)
(0.0177318 0.0173112 0)
(0.0186791 0.00151668 0)
(0.0202994 -0.0116403 0)
(0.0193308 -0.0176595 0)
(0.0214619 -0.025038 0)
(0.0110528 -0.0202702 0)
(0.00558547 -0.00183151 0)
(0.0106253 0.00179001 0)
(0.000556157 0.00103778 0)
(-0.00192127 -0.00429685 0)
(-0.00193117 -0.0072598 0)
(-0.00687373 -0.018111 0)
(0.00895919 -0.0146003 0)
(-0.00994721 -0.0245768 0)
(0.00562777 -0.0525499 0)
(-0.000405159 0.0399958 0)
(0.00611567 0.0218301 0)
(0.00494587 0.0201918 0)
(0.0183504 0.018929 0)
(0.0098024 0.0198965 0)
(0.0293433 0.00936228 0)
(0.0205819 0.00493996 0)
(0.0308163 -0.00328677 0)
(0.0250746 -0.0213322 0)
(0.0259943 -0.017392 0)
(0.00167866 -0.00660146 0)
(0.00963642 0.000270223 0)
(0.00902264 -0.00356002 0)
(0.0155309 0.0147282 0)
(0.0209817 0.00388907 0)
(0.024728 0.00236565 0)
(0.00418837 -0.000773633 0)
(0.00443123 0.00055653 0)
(-0.00847786 0.00444516 0)
(0.0113638 -0.0542152 0)
(0.000814784 0.0353599 0)
(0.00634634 0.0176955 0)
(0.00401533 0.0107699 0)
(0.0148828 0.0161914 0)
(0.0149319 0.0128402 0)
(0.0267698 0.00496741 0)
(0.0239778 -0.00208746 0)
(0.0322501 -0.0165571 0)
(0.0337709 -0.0111271 0)
(0.0184312 -0.00354555 0)
(0.00276144 -0.00325071 0)
(-0.00134506 -0.00681403 0)
(-0.00977467 -0.00794058 0)
(-0.0114777 -0.0120596 0)
(-0.000176048 -0.00831198 0)
(-0.0041222 0.00769703 0)
(-0.00656958 -0.00304673 0)
(0.0104853 -0.00619058 0)
(-0.00860472 -0.0367436 0)
(0.00623671 -0.0555487 0)
(0.00394403 0.0355884 0)
(0.0143272 0.0242412 0)
(0.0205678 0.0113086 0)
(0.0257233 0.00817027 0)
(0.0312673 0.00728847 0)
(0.0318509 0.00364476 0)
(0.0395564 -0.00305128 0)
(0.0369965 -0.00855228 0)
(0.0342437 -0.00711655 0)
(0.0328939 0.00607909 0)
(0.0347506 0.0135938 0)
(0.0370895 0.0101667 0)
(0.0385959 0.00950176 0)
(0.0377981 0.00795901 0)
(0.0169517 -0.00612806 0)
(0.0216001 0.0103279 0)
(0.00814733 -0.0113908 0)
(0.0158121 0.00329485 0)
(-0.00137954 0.0165824 0)
(0.0155021 -0.0492589 0)
(-0.00164586 0.015065 0)
(0.0152758 0.00112987 0)
(0.0114745 -0.00088628 0)
(0.0190296 0.00538109 0)
(0.0145275 0.00727867 0)
(0.0196869 0.000590426 0)
(0.00985933 -0.0080946 0)
(-0.00270227 -0.00884415 0)
(-0.0175305 -0.00731887 0)
(-0.0175778 -0.00649277 0)
(-0.018074 -0.00879168 0)
(-0.0125296 -0.0100559 0)
(-0.0200115 -0.00368827 0)
(0.00276105 0.00527328 0)
(-0.0143732 0.00462058 0)
(0.00121441 0.0147483 0)
(0.00609272 0.00451853 0)
(-0.0141222 -0.00246267 0)
(0.020014 -0.0369776 0)
(0.0137091 -0.0567255 0)
(0.00503583 0.0180224 0)
(0.0272163 0.0134099 0)
(0.0240096 0.0052989 0)
(0.0296926 0.00351949 0)
(0.0338592 0.00520604 0)
(0.0415607 0.00675004 0)
(0.0464992 0.0128824 0)
(0.0465241 0.0153131 0)
(0.0519107 0.0134703 0)
(0.0545021 0.0101147 0)
(0.0550159 0.00829156 0)
(0.0542764 0.0084455 0)
(0.0522383 0.00246553 0)
(0.0519855 -0.00289531 0)
(0.0518949 -0.000910622 0)
(0.0561625 -0.00653518 0)
(0.0555511 -0.000833324 0)
(0.0590087 -0.00419524 0)
(0.0503445 -0.00465174 0)
(0.0230578 0.00197455 0)
)
;

boundaryField
{
    movingWall
    {
        type            fixedValue;
        value           uniform (1 0 0);
    }
    fixedWalls
    {
        type            noSlip;
    }
    frontAndBack
    {
        type            empty;
    }
}


// ************************************************************************* //
