/*--------------------------------*- C++ -*----------------------------------*\
| =========                 |                                                 |
| \\      /  F ield         | OpenFOAM: The Open Source CFD Toolbox           |
|  \\    /   O peration     | Version:  5.x                                   |
|   \\  /    A nd           | Web:      www.OpenFOAM.org                      |
|    \\/     M anipulation  |                                                 |
\*---------------------------------------------------------------------------*/
FoamFile
{
    version     2.0;
    format      ascii;
    class       volVectorField;
    location    "1.5";
    object      U;
}
// * * * * * * * * * * * * * * * * * * * * * * * * * * * * * * * * * * * * * //

dimensions      [0 1 -1 0 0 0 0];

internalField   nonuniform List<vector> 
400
(
(-5.20901e-05 5.16979e-05 0)
(-0.000156703 5.19021e-05 0)
(-0.000259456 4.97718e-05 0)
(-0.000356719 4.65961e-05 0)
(-0.000446566 4.24228e-05 0)
(-0.000527028 3.73072e-05 0)
(-0.000596276 3.13146e-05 0)
(-0.000652625 2.452e-05 0)
(-0.000694552 1.70101e-05 0)
(-0.000720723 8.88627e-06 0)
(-0.000730051 2.70997e-07 0)
(-0.00072161 -8.71786e-06 0)
(-0.000694843 -1.78571e-05 0)
(-0.000649707 -2.69206e-05 0)
(-0.000586596 -3.56395e-05 0)
(-0.0005065 -4.36975e-05 0)
(-0.000411084 -5.07456e-05 0)
(-0.000302763 -5.64273e-05 0)
(-0.000184432 -6.04007e-05 0)
(-6.15681e-05 -6.10144e-05 0)
(-5.44615e-05 0.000157951 0)
(-0.000163827 0.000158558 0)
(-0.000271241 0.00015205 0)
(-0.000372926 0.000142352 0)
(-0.000466881 0.000129612 0)
(-0.000551062 0.000114003 0)
(-0.00062358 9.57244e-05 0)
(-0.000682689 7.5005e-05 0)
(-0.000726812 5.21038e-05 0)
(-0.000754557 2.73217e-05 0)
(-0.000764807 1.01832e-06 0)
(-0.000756531 -2.63829e-05 0)
(-0.000729067 -5.42999e-05 0)
(-0.000682336 -8.20433e-05 0)
(-0.000616666 -0.000108782 0)
(-0.000533 -0.000133544 0)
(-0.000433006 -0.000155247 0)
(-0.000319176 -0.000172779 0)
(-0.000194555 -0.00018506 0)
(-6.49694e-05 -0.000187022 0)
(-5.66524e-05 0.000268965 0)
(-0.000170434 0.000269999 0)
(-0.000282226 0.000258946 0)
(-0.000388116 0.000242483 0)
(-0.000486063 0.000220869 0)
(-0.000573979 0.0001944 0)
(-0.000649937 0.000163417 0)
(-0.000712155 0.000128301 0)
(-0.000759009 8.94763e-05 0)
(-0.000789044 4.74313e-05 0)
(-0.000801037 2.74497e-06 0)
(-0.000793837 -4.38555e-05 0)
(-0.000766625 -9.14791e-05 0)
(-0.00071912 -0.00013897 0)
(-0.000651457 -0.000184916 0)
(-0.000564411 -0.000227642 0)
(-0.000459551 -0.000265259 0)
(-0.000339397 -0.000295775 0)
(-0.000207169 -0.000317234 0)
(-6.92268e-05 -0.000320857 0)
(-5.99713e-05 0.000385213 0)
(-0.000180441 0.000386736 0)
(-0.000298857 0.000370983 0)
(-0.000411109 0.000347538 0)
(-0.000515091 0.000316779 0)
(-0.000608656 0.000279138 0)
(-0.000689831 0.000235097 0)
(-0.000756784 0.000185184 0)
(-0.000807833 0.000129975 0)
(-0.000841432 7.01165e-05 0)
(-0.000856225 6.37086e-06 0)
(-0.000850872 -6.0324e-05 0)
(-0.000824281 -0.000128768 0)
(-0.000775856 -0.000197373 0)
(-0.000705405 -0.000264145 0)
(-0.000613394 -0.000326658 0)
(-0.000501177 -0.000382088 0)
(-0.000371273 -0.000427374 0)
(-0.000227135 -0.000459425 0)
(-7.59816e-05 -0.000465263 0)
(-6.4484e-05 0.000509282 0)
(-0.000194043 0.000511378 0)
(-0.000321454 0.000490679 0)
(-0.000442322 0.000459911 0)
(-0.000554466 0.000419591 0)
(-0.000655665 0.0003703 0)
(-0.000743894 0.000312673 0)
(-0.00081728 0.00024738 0)
(-0.000874079 0.000175125 0)
(-0.00091265 9.66696e-05 0)
(-0.000931479 1.28951e-05 0)
(-0.000928979 -7.51185e-05 0)
(-0.000903677 -0.000165961 0)
(-0.0008545 -0.000257678 0)
(-0.000780746 -0.000347706 0)
(-0.000682359 -0.000432805 0)
(-0.000560275 -0.000509044 0)
(-0.000416883 -0.000571985 0)
(-0.00025589 -0.000616965 0)
(-8.57453e-05 -0.000626005 0)
(-7.02631e-05 0.00064359 0)
(-0.000211458 0.000646361 0)
(-0.000350357 0.000620375 0)
(-0.000482198 0.00058182 0)
(-0.000604705 0.000531378 0)
(-0.000715577 0.000469815 0)
(-0.000812753 0.000397936 0)
(-0.000894336 0.000316554 0)
(-0.000958546 0.000226472 0)
(-0.00100366 0.000128511 0)
(-0.00102801 2.35816e-05 0)
(-0.00102973 -8.72018e-05 0)
(-0.00100684 -0.000202384 0)
(-0.000957605 -0.000319768 0)
(-0.000880537 -0.0004363 0)
(-0.000774739 -0.000547879 0)
(-0.00064037 -0.000649265 0)
(-0.000479405 -0.000734202 0)
(-0.000295696 -0.000795765 0)
(-9.93455e-05 -0.000809711 0)
(-7.74087e-05 0.000790744 0)
(-0.000232978 0.000794301 0)
(-0.000386029 0.000762567 0)
(-0.000531322 0.000715602 0)
(-0.000666475 0.000654308 0)
(-0.000789112 0.000579684 0)
(-0.000897161 0.000492748 0)
(-0.00098875 0.000394464 0)
(-0.00106213 0.000285709 0)
(-0.00111554 0.000167296 0)
(-0.00114719 4.00436e-05 0)
(-0.00115495 -9.50693e-05 0)
(-0.00113625 -0.000236775 0)
(-0.00108842 -0.000382872 0)
(-0.00100887 -0.00053002 0)
(-0.000895334 -0.000673301 0)
(-0.000746616 -0.00080596 0)
(-0.000563675 -0.000919354 0)
(-0.000350158 -0.00100319 0)
(-0.000118149 -0.0010251 0)
(-8.6058e-05 0.000953571 0)
(-0.000259002 0.000958018 0)
(-0.000429086 0.000919913 0)
(-0.000590462 0.000863711 0)
(-0.000740629 0.000790613 0)
(-0.000877145 0.000701941 0)
(-0.000997983 0.000598991 0)
(-0.00110138 0.000482914 0)
(-0.00118572 0.000354646 0)
(-0.00124934 0.000214911 0)
(-0.00129038 6.42905e-05 0)
(-0.00130656 -9.66098e-05 0)
(-0.00129466 -0.000267047 0)
(-0.00125086 -0.00044521 0)
(-0.00117098 -0.00062789 0)
(-0.00105069 -0.000809643 0)
(-0.00088645 -0.000982086 0)
(-0.000677045 -0.00113354 0)
(-0.000425117 -0.00124861 0)
(-0.000144505 -0.0012842 0)
(-9.63997e-05 0.00113519 0)
(-0.000290072 0.0011406 0)
(-0.000480354 0.00109529 0)
(-0.000660629 0.00102874 0)
(-0.000828256 0.000942581 0)
(-0.000980746 0.000838605 0)
(-0.0011162 0.000718499 0)
(-0.00123311 0.000583675 0)
(-0.00133014 0.000435135 0)
(-0.00140591 0.000273437 0)
(-0.00145872 9.8748e-05 0)
(-0.0014863 -8.89749e-05 0)
(-0.00148487 -0.000290009 0)
(-0.00144929 -0.000503518 0)
(-0.00137332 -0.000727192 0)
(-0.00124955 -0.000955812 0)
(-0.00107056 -0.00117968 0)
(-0.000830769 -0.00138354 0)
(-0.000530369 -0.00154402 0)
(-0.000182705 -0.00160468 0)
(-0.0001087 0.00133908 0)
(-0.000326929 0.0013455 0)
(-0.000540948 0.00129184 0)
(-0.000743178 0.00121344 0)
(-0.000930778 0.00111253 0)
(-0.00110125 0.000991606 0)
(-0.00125294 0.000852942 0)
(-0.00138477 0.000698345 0)
(-0.00149598 0.000528933 0)
(-0.00158575 0.00034504 0)
(-0.00165281 0.000146237 0)
(-0.00169534 -6.84867e-05 0)
(-0.00170923 -0.00030107 0)
(-0.00168807 -0.000552452 0)
(-0.0016233 -0.000822493 0)
(-0.00150322 -0.00110769 0)
(-0.00131423 -0.00139839 0)
(-0.00104222 -0.00167613 0)
(-0.000683031 -0.00190465 0)
(-0.000241131 -0.00201416 0)
(-0.000123291 0.00156956 0)
(-0.00037053 0.00157672 0)
(-0.00061237 0.0015132 0)
(-0.000839957 0.00142079 0)
(-0.00105011 0.00130279 0)
(-0.00124037 0.00116267 0)
(-0.0014095 0.00100364 0)
(-0.00155715 0.000828108 0)
(-0.00168348 0.000637439 0)
(-0.00178864 0.000431718 0)
(-0.00187228 0.00020973 0)
(-0.00193364 -3.10038e-05 0)
(-0.00196887 -0.000294048 0)
(-0.00197076 -0.000583896 0)
(-0.00192861 -0.000904292 0)
(-0.00182551 -0.00125601 0)
(-0.00163905 -0.00163263 0)
(-0.00133835 -0.00201611 0)
(-0.000914243 -0.00234852 0)
(-0.000337173 -0.00255854 0)
(-0.00014091 0.00182866 0)
(-0.000422496 0.00183845 0)
(-0.00069677 0.00176336 0)
(-0.000953611 0.00165406 0)
(-0.00118893 0.00151563 0)
(-0.00140044 0.00135314 0)
(-0.00158755 0.00117124 0)
(-0.00175102 0.00097336 0)
(-0.00189242 0.000761294 0)
(-0.0020135 0.000534936 0)
(-0.00211558 0.000292206 0)
(-0.00219916 2.88763e-05 0)
(-0.00226219 -0.00026077 0)
(-0.0022984 -0.000586215 0)
(-0.0022955 -0.000957328 0)
(-0.00223164 -0.00138319 0)
(-0.00207426 -0.00186672 0)
(-0.00176054 -0.00240077 0)
(-0.00128262 -0.00289233 0)
(-0.000508828 -0.00331841 0)
(-0.000159701 0.00213681 0)
(-0.000481756 0.00213877 0)
(-0.000796522 0.00204883 0)
(-0.00108773 0.00191695 0)
(-0.00135108 0.00175313 0)
(-0.00158482 0.00156359 0)
(-0.00178933 0.00135535 0)
(-0.00196716 0.00113324 0)
(-0.00212197 0.000899768 0)
(-0.0022578 0.000654831 0)
(-0.00237841 0.000395477 0)
(-0.00248668 0.000115445 0)
(-0.00258406 -0.000195032 0)
(-0.00266744 -0.000546099 0)
(-0.00272573 -0.000960061 0)
(-0.00273509 -0.00145913 0)
(-0.00265603 -0.00206544 0)
(-0.00236947 -0.00280875 0)
(-0.0019004 -0.00353264 0)
(-0.00084419 -0.00444382 0)
(-0.000194816 0.00240465 0)
(-0.000565649 0.00248365 0)
(-0.000918026 0.00237114 0)
(-0.00124942 0.00221588 0)
(-0.00154233 0.00201809 0)
(-0.00179829 0.00179423 0)
(-0.00201798 0.00155433 0)
(-0.00220668 0.0013051 0)
(-0.00237091 0.00105007 0)
(-0.00251788 0.000789449 0)
(-0.00265508 0.000520444 0)
(-0.00278983 0.000238035 0)
(-0.00292395 -6.77784e-05 0)
(-0.00306374 -0.000424617 0)
(-0.00320895 -0.000861721 0)
(-0.00333771 -0.00141818 0)
(-0.00342141 -0.00215048 0)
(-0.00324323 -0.00319396 0)
(-0.00297544 -0.00420106 0)
(-0.00155929 -0.00621274 0)
(-0.00014025 0.00301322 0)
(-0.000574649 0.00282814 0)
(-0.00106451 0.00275218 0)
(-0.00144094 0.00252951 0)
(-0.00177283 0.00230019 0)
(-0.00204869 0.00203748 0)
(-0.00227855 0.00176216 0)
(-0.00247152 0.0014829 0)
(-0.00263771 0.00120583 0)
(-0.00278746 0.000931586 0)
(-0.00292977 0.000655369 0)
(-0.0030747 0.000364746 0)
(-0.00324621 4.30213e-05 0)
(-0.00346053 -0.000336113 0)
(-0.00371785 -0.000796609 0)
(-0.00402282 -0.00139909 0)
(-0.00442015 -0.00222283 0)
(-0.0044586 -0.00353868 0)
(-0.00481038 -0.00478484 0)
(-0.00303964 -0.00911218 0)
(-0.000441079 0.00284398 0)
(-0.000902314 0.003724 0)
(-0.00120303 0.00321492 0)
(-0.00170172 0.00306629 0)
(-0.00203378 0.00269779 0)
(-0.0023368 0.0023449 0)
(-0.00257288 0.00199679 0)
(-0.00276328 0.00167001 0)
(-0.00292245 0.00136634 0)
(-0.00306867 0.00108483 0)
(-0.00322256 0.000825457 0)
(-0.00340332 0.00058411 0)
(-0.00362689 0.00036053 0)
(-0.00390773 0.000140679 0)
(-0.00428024 -0.000111588 0)
(-0.00478017 -0.000505511 0)
(-0.00554679 -0.00104828 0)
(-0.00587157 -0.00300078 0)
(-0.00747162 -0.00423226 0)
(-0.00475763 -0.0143101 0)
(0.000157676 0.00471831 0)
(-0.000444774 0.00286438 0)
(-0.0018381 0.00346305 0)
(-0.00199176 0.00288338 0)
(-0.00250889 0.00269572 0)
(-0.00275348 0.00237524 0)
(-0.00295453 0.00206433 0)
(-0.00310212 0.00175207 0)
(-0.00322266 0.00145408 0)
(-0.00332779 0.00117435 0)
(-0.00342944 0.0009188 0)
(-0.00353798 0.000675442 0)
(-0.00368613 0.000452687 0)
(-0.00392424 0.000194716 0)
(-0.00434212 -9.61816e-05 0)
(-0.00491292 -0.000588609 0)
(-0.00672895 -0.00121984 0)
(-0.00712276 -0.0033311 0)
(-0.0107717 -0.00541845 0)
(-0.0030824 -0.0227256 0)
(0.00147848 0.00253813 0)
(-0.000753211 0.00705696 0)
(-9.43189e-05 0.00488285 0)
(-0.0019082 0.00482041 0)
(-0.00222987 0.00390817 0)
(-0.00280805 0.0032611 0)
(-0.00310881 0.00265339 0)
(-0.00332841 0.00215483 0)
(-0.00347831 0.0017495 0)
(-0.00359554 0.00141256 0)
(-0.0037193 0.00116346 0)
(-0.00387248 0.000949898 0)
(-0.00411417 0.000883839 0)
(-0.004474 0.000896957 0)
(-0.00510482 0.00123844 0)
(-0.00588884 0.00158247 0)
(-0.00784059 0.00292924 0)
(-0.00654543 -0.000305234 0)
(-0.0107461 -0.00394148 0)
(0.00554364 -0.0300764 0)
(-0.0119582 0.00509713 0)
(-0.00519835 0.00278338 0)
(-0.0104411 0.00392926 0)
(-0.00734628 0.00351318 0)
(-0.00769907 0.00293869 0)
(-0.00667337 0.0024559 0)
(-0.00610566 0.00204328 0)
(-0.00553284 0.0016944 0)
(-0.00507696 0.00140816 0)
(-0.00465446 0.00114579 0)
(-0.00438972 0.00100559 0)
(-0.0039763 0.000812948 0)
(-0.00386173 0.000910462 0)
(-0.00326315 0.000797133 0)
(-0.00329306 0.00126731 0)
(-0.0012072 0.000907468 0)
(-0.00303083 0.000303641 0)
(0.00473195 -0.0045286 0)
(-0.00235951 -0.0172255 0)
(0.0129605 -0.0336063 0)
(0.0096497 0.0162756 0)
(0.014388 0.00934009 0)
(0.0190947 0.0064928 0)
(0.0242633 0.00454497 0)
(0.0276082 0.00352376 0)
(0.030168 0.00265882 0)
(0.0322478 0.00200864 0)
(0.0340314 0.00152527 0)
(0.0352487 0.0012247 0)
(0.0367028 0.000892155 0)
(0.0368761 0.000835317 0)
(0.0390258 0.000455254 0)
(0.0372149 0.000577391 0)
(0.0416419 0.000366892 0)
(0.0367155 -8.5766e-05 0)
(0.0440973 0.00105668 0)
(0.0362601 -0.00133637 0)
(0.0428977 -9.98028e-05 0)
(0.0298818 -0.00409406 0)
(0.0253323 -0.0105606 0)
)
;

boundaryField
{
    movingWall
    {
        type            fixedValue;
        value           uniform (1 0 0);
    }
    fixedWalls
    {
        type            noSlip;
    }
    frontAndBack
    {
        type            empty;
    }
}


// ************************************************************************* //
