/*--------------------------------*- C++ -*----------------------------------*\
| =========                 |                                                 |
| \\      /  F ield         | OpenFOAM: The Open Source CFD Toolbox           |
|  \\    /   O peration     | Version:  5.x                                   |
|   \\  /    A nd           | Web:      www.OpenFOAM.org                      |
|    \\/     M anipulation  |                                                 |
\*---------------------------------------------------------------------------*/
FoamFile
{
    version     2.0;
    format      ascii;
    class       volScalarField;
    location    "18.1";
    object      p;
}
// * * * * * * * * * * * * * * * * * * * * * * * * * * * * * * * * * * * * * //

dimensions      [0 2 -2 0 0 0 0];

internalField   nonuniform List<scalar> 
400
(
2.8234e-10
-0.000829968
-0.00144744
-0.00182198
-0.00199704
-0.00208148
-0.00211151
-0.00213237
-0.00214161
-0.00214188
-0.00211801
-0.00208673
-0.00206872
-0.00207177
-0.00205217
-0.00196275
-0.00173319
-0.00139152
-0.000930984
0.000393257
-0.000898551
-0.00148024
-0.00183142
-0.00202842
-0.00209284
-0.00212334
-0.00212602
-0.00213225
-0.00214091
-0.00214844
-0.00214059
-0.00211405
-0.00208665
-0.00209284
-0.00211114
-0.00209918
-0.00203422
-0.00190405
-0.00166924
-0.000667887
-0.00147432
-0.00182768
-0.00200509
-0.0020929
-0.00211907
-0.00212887
-0.00212726
-0.00213598
-0.00214277
-0.00214555
-0.00213461
-0.00210661
-0.00209229
-0.00209426
-0.00210786
-0.00205578
-0.00206967
-0.00199687
-0.0018451
-0.00139595
-0.00179171
-0.00202409
-0.00208417
-0.00213136
-0.00213332
-0.00213785
-0.00213597
-0.00214108
-0.00214727
-0.00215011
-0.00214809
-0.00213299
-0.00211817
-0.00210872
-0.00215647
-0.00216196
-0.00216968
-0.00204759
-0.0020505
-0.00181999
-0.0019775
-0.00209436
-0.00212189
-0.00213433
-0.00213625
-0.0021366
-0.00213473
-0.00213862
-0.00214389
-0.00214282
-0.00213922
-0.00212666
-0.00212121
-0.00213762
-0.00219519
-0.0021994
-0.00218993
-0.00211004
-0.00211039
-0.0019895
-0.0020614
-0.00213822
-0.00212296
-0.00214321
-0.00213317
-0.00213857
-0.00213792
-0.00214171
-0.00214562
-0.00214685
-0.00215457
-0.00215649
-0.00215319
-0.00211751
-0.00218223
-0.00216118
-0.00222651
-0.00213438
-0.00218013
-0.00209302
-0.00211419
-0.00216628
-0.0021616
-0.0021569
-0.00214915
-0.00214427
-0.00214736
-0.00214255
-0.00215575
-0.00214766
-0.00215687
-0.00213424
-0.00216486
-0.00209809
-0.00215541
-0.0021602
-0.00222748
-0.00214963
-0.00215531
-0.00212193
-0.00213887
-0.00217393
-0.0021437
-0.00215368
-0.00213678
-0.00213599
-0.0021324
-0.00214122
-0.00214147
-0.00214464
-0.00218139
-0.00215805
-0.00217655
-0.00218181
-0.0021602
-0.00214228
-0.00217102
-0.00213312
-0.00219315
-0.00209556
-0.00215485
-0.00218008
-0.00216007
-0.00215891
-0.00215175
-0.00213525
-0.00214925
-0.00213662
-0.00217784
-0.00219084
-0.00218923
-0.00215343
-0.00221782
-0.00213329
-0.0021397
-0.00217845
-0.00215508
-0.00211566
-0.00214956
-0.00207322
-0.00215946
-0.00217542
-0.0021635
-0.00214758
-0.002137
-0.00212929
-0.00213056
-0.00213155
-0.00214381
-0.00217456
-0.00214998
-0.00218035
-0.00216205
-0.00227453
-0.00222176
-0.00219278
-0.00216023
-0.00213376
-0.00215174
-0.00212718
-0.00215583
-0.00217675
-0.0021579
-0.0021476
-0.00213517
-0.00212402
-0.00213221
-0.00213044
-0.00213767
-0.00217595
-0.00221141
-0.00226562
-0.00222927
-0.0024254
-0.00229183
-0.00220821
-0.00230235
-0.00217327
-0.00217208
-0.00215366
-0.00213998
-0.00214346
-0.00211616
-0.00211171
-0.0021165
-0.00211096
-0.00213639
-0.00215835
-0.00212985
-0.00218988
-0.00222692
-0.00226168
-0.00224162
-0.00226398
-0.00218581
-0.00212171
-0.00221391
-0.00214278
-0.00221202
-0.00207515
-0.00209463
-0.00212185
-0.00211844
-0.00211803
-0.00211966
-0.00210935
-0.00213101
-0.00213764
-0.00212402
-0.00217262
-0.0021993
-0.00225234
-0.00221205
-0.00224615
-0.00230486
-0.00213777
-0.00219259
-0.00205656
-0.00217887
-0.00199787
-0.00205633
-0.0020833
-0.00209138
-0.00205971
-0.0020634
-0.00211677
-0.00206382
-0.00205536
-0.00207839
-0.00212632
-0.00221029
-0.00226424
-0.0023008
-0.00222337
-0.00230808
-0.00208678
-0.00210521
-0.00197446
-0.00203291
-0.0020015
-0.00197962
-0.00201445
-0.00204993
-0.00206006
-0.00206981
-0.00206748
-0.002048
-0.00208119
-0.0020742
-0.00209814
-0.00219887
-0.00226115
-0.0022835
-0.00226752
-0.00227154
-0.00217702
-0.00212139
-0.00192117
-0.00221467
-0.00196906
-0.00187503
-0.00191807
-0.00200331
-0.00196446
-0.0020025
-0.00203471
-0.00200954
-0.00210319
-0.00209451
-0.002073
-0.0021588
-0.00215549
-0.0021707
-0.00206663
-0.00206101
-0.00194331
-0.00218037
-0.00193317
-0.00194129
-0.00185184
-0.00171048
-0.00179951
-0.00189142
-0.00194614
-0.00194571
-0.00201796
-0.00195388
-0.00206575
-0.00216318
-0.0021814
-0.00220711
-0.00220121
-0.00215874
-0.0021016
-0.00205337
-0.00211912
-0.00211648
-0.00204406
-0.0020816
-0.00179573
-0.00147928
-0.00169067
-0.00180012
-0.00188064
-0.0019022
-0.00197305
-0.00195248
-0.00206782
-0.00216393
-0.00228846
-0.00225888
-0.00208051
-0.0021527
-0.00211626
-0.00203374
-0.00205221
-0.00195814
-0.0018149
-0.0016377
-0.00150586
-0.00117587
-0.00146741
-0.00166719
-0.00177942
-0.00181966
-0.00182486
-0.00180002
-0.00204079
-0.00237285
-0.00253133
-0.00230791
-0.00209834
-0.00221325
-0.00205549
-0.00203452
-0.0019698
-0.00196508
-0.00200081
-0.00196836
-0.000989193
-0.000831131
-0.00122284
-0.00151991
-0.0017292
-0.00183546
-0.00192392
-0.00195681
-0.00205297
-0.00217877
-0.00224877
-0.00219886
-0.00212758
-0.00205335
-0.00198726
-0.00197359
-0.00180385
-0.00185038
-0.00149619
-0.000801342
0.00107531
)
;

boundaryField
{
    movingWall
    {
        type            zeroGradient;
    }
    fixedWalls
    {
        type            zeroGradient;
    }
    frontAndBack
    {
        type            empty;
    }
}


// ************************************************************************* //
