/*--------------------------------*- C++ -*----------------------------------*\
| =========                 |                                                 |
| \\      /  F ield         | OpenFOAM: The Open Source CFD Toolbox           |
|  \\    /   O peration     | Version:  5.x                                   |
|   \\  /    A nd           | Web:      www.OpenFOAM.org                      |
|    \\/     M anipulation  |                                                 |
\*---------------------------------------------------------------------------*/
FoamFile
{
    version     2.0;
    format      ascii;
    class       surfaceScalarField;
    location    "18.1";
    object      phi;
}
// * * * * * * * * * * * * * * * * * * * * * * * * * * * * * * * * * * * * * //

dimensions      [0 3 -1 0 0 0 0];

internalField   nonuniform List<scalar> 
760
(
-1.40467e-06
1.40467e-06
-2.34728e-06
9.42605e-07
-2.78116e-06
4.33887e-07
-3.00614e-06
2.24975e-07
-3.05558e-06
4.94363e-08
-3.10119e-06
4.56138e-08
-3.07644e-06
-2.47462e-08
-3.0982e-06
2.17549e-08
-3.06558e-06
-3.26201e-08
-3.08285e-06
1.72723e-08
-3.05178e-06
-3.10669e-08
-3.05398e-06
2.19234e-09
-3.02007e-06
-3.39095e-08
-3.03897e-06
1.89074e-08
-3.01967e-06
-1.93078e-08
-2.9796e-06
-4.00633e-08
-2.83742e-06
-1.42185e-07
-2.3759e-06
-4.6152e-07
-1.5099e-06
-8.65998e-07
-1.5099e-06
-7.64007e-07
2.16868e-06
-1.18991e-06
1.36851e-06
-1.35892e-06
6.02893e-07
-1.4066e-06
2.72657e-07
-1.43641e-06
7.92436e-08
-1.43823e-06
4.74362e-08
-1.45546e-06
-7.51646e-09
-1.47148e-06
3.77805e-08
-1.4994e-06
-4.70084e-09
-1.49623e-06
1.40968e-08
-1.4797e-06
-4.75975e-08
-1.42664e-06
-5.08691e-08
-1.42152e-06
-3.90257e-08
-1.42029e-06
1.76821e-08
-1.47798e-06
3.83754e-08
-1.48062e-06
-3.74215e-08
-1.44574e-06
-1.77062e-07
-1.53035e-06
-3.76911e-07
-1.14584e-06
-1.25051e-06
-2.65574e-06
-3.59612e-07
2.52829e-06
-5.58872e-07
1.56777e-06
-5.49868e-07
5.93889e-07
-5.5468e-07
2.7747e-07
-5.666e-07
9.11637e-08
-5.7853e-07
5.93659e-08
-6.34818e-07
4.87711e-08
-6.75429e-07
7.83916e-08
-7.34547e-07
5.44179e-08
-7.5287e-07
3.24198e-08
-7.62652e-07
-3.78156e-08
-7.53384e-07
-6.01371e-08
-7.7556e-07
-1.68502e-08
-7.93992e-07
3.61147e-08
-7.29686e-07
-2.59309e-08
-6.25345e-07
-1.41763e-07
-3.54112e-07
-4.48294e-07
-2.76669e-07
-4.54355e-07
-3.8901e-07
-1.13817e-06
-3.04475e-06
-2.11914e-07
2.74021e-06
-2.59719e-07
1.61557e-06
-2.19367e-07
5.53537e-07
-1.86383e-07
2.44485e-07
-2.00899e-07
1.05679e-07
-2.2482e-07
8.32876e-08
-2.75169e-07
9.91201e-08
-3.02127e-07
1.05349e-07
-3.30903e-07
8.31934e-08
-3.38214e-07
3.9731e-08
-3.64416e-07
-1.16133e-08
-4.29182e-07
4.62899e-09
-4.33595e-07
-1.2437e-08
-5.06711e-07
1.0923e-07
-6.53967e-07
1.21326e-07
-6.7749e-07
-1.1824e-07
-6.36309e-07
-4.89475e-07
-3.76023e-07
-7.14641e-07
-2.34435e-07
-1.27975e-06
-3.27919e-06
-6.88095e-08
2.80902e-06
-1.08918e-07
1.65568e-06
-7.53047e-08
5.19924e-07
-2.50292e-08
1.9421e-07
-3.82418e-08
1.18892e-07
-7.50898e-08
1.20136e-07
-1.02867e-07
1.26897e-07
-1.22893e-07
1.25376e-07
-1.55945e-07
1.16246e-07
-1.88259e-07
7.20447e-08
-2.11114e-07
1.12417e-08
-1.98391e-07
-8.09396e-09
-1.33636e-07
-7.71922e-08
-2.00689e-07
1.76283e-07
-1.82826e-07
1.03462e-07
-1.76784e-07
-1.24282e-07
-1.77771e-07
-4.88488e-07
-1.40628e-08
-8.78349e-07
-4.0091e-08
-1.25373e-06
-3.31928e-06
-7.7673e-08
2.88669e-06
-9.23734e-08
1.67038e-06
-6.51074e-08
4.92658e-07
-2.44798e-08
1.53582e-07
-6.14109e-08
1.55823e-07
-6.26804e-08
1.21405e-07
-7.46497e-08
1.38866e-07
-1.0212e-07
1.52847e-07
-9.85664e-08
1.12692e-07
-1.08963e-07
8.24413e-08
-2.34456e-07
1.36734e-07
-2.99587e-07
5.70371e-08
-1.01334e-07
-2.75445e-07
-3.76925e-08
1.12642e-07
5.71903e-08
8.57958e-09
7.84936e-08
-1.45585e-07
-1.94137e-07
-2.15858e-07
-1.32938e-07
-9.39548e-07
-3.49319e-08
-1.35173e-06
-3.35421e-06
-1.0533e-08
2.89722e-06
-1.57166e-08
1.67557e-06
-3.1297e-08
5.08238e-07
-3.77413e-08
1.60027e-07
-9.40115e-09
1.27483e-07
-8.74654e-09
1.20751e-07
-1.71185e-08
1.47238e-07
-5.04912e-08
1.86219e-07
-1.04271e-07
1.66471e-07
-9.0076e-08
6.82466e-08
-6.66208e-08
1.13279e-07
-1.95482e-08
9.96439e-09
7.48623e-08
-3.69855e-07
-3.85137e-08
2.26018e-07
6.08908e-08
-9.08249e-08
1.66528e-07
-2.51222e-07
7.29696e-08
-1.223e-07
1.50117e-07
-1.0167e-06
8.4145e-09
-1.21003e-06
-3.34579e-06
-1.47907e-08
2.91201e-06
1.10437e-09
1.65967e-06
1.73089e-08
4.92034e-07
4.00206e-08
1.37315e-07
2.26767e-08
1.44827e-07
-9.20887e-09
1.52636e-07
-9.94002e-08
2.3743e-07
-1.47247e-07
2.34067e-07
-1.74974e-07
1.94198e-07
-2.89315e-07
1.82588e-07
-2.82266e-07
1.0623e-07
-4.94197e-08
-2.22882e-07
-2.44338e-08
-3.94841e-07
-2.31997e-07
4.33581e-07
-1.55185e-07
-1.67636e-07
-1.58526e-08
-3.90555e-07
1.02493e-07
-2.40645e-07
1.02687e-07
-1.01689e-06
-3.29368e-08
-1.07441e-06
-3.37873e-06
-5.63004e-09
2.91764e-06
7.72569e-09
1.64631e-06
7.19569e-09
4.92564e-07
-2.95681e-08
1.74079e-07
6.57094e-09
1.08688e-07
8.07822e-08
7.84247e-08
1.17395e-07
2.00817e-07
2.16131e-07
1.3533e-07
3.8063e-07
2.96982e-08
2.644e-07
2.98817e-07
3.94787e-08
3.31152e-07
-5.73302e-08
-1.26073e-07
-1.70357e-07
-2.81814e-07
-2.84223e-07
5.47447e-07
3.79396e-08
-4.89799e-07
2.48024e-07
-6.0064e-07
1.10421e-07
-1.03042e-07
1.66687e-07
-1.07316e-06
3.44242e-08
-9.42143e-07
-3.34431e-06
9.29242e-09
2.90835e-06
4.03511e-08
1.61526e-06
3.75246e-08
4.9539e-07
8.74656e-08
1.24138e-07
1.01892e-07
9.42609e-08
1.14192e-07
6.61248e-08
1.82662e-07
1.32348e-07
1.34181e-07
1.83812e-07
-2.16203e-09
1.66041e-07
-1.67435e-07
4.6409e-07
-1.91839e-07
3.55556e-07
-2.08003e-07
-1.09909e-07
-2.92048e-07
-1.97769e-07
-4.97536e-07
7.52935e-07
-2.97745e-07
-6.8959e-07
-1.71882e-07
-7.26503e-07
-1.74061e-07
-1.00862e-07
-1.77801e-07
-1.06942e-06
-1.38881e-08
-1.10606e-06
-3.35819e-06
3.00105e-08
2.87834e-06
6.139e-08
1.58388e-06
1.23692e-07
4.33088e-07
1.99603e-07
4.8227e-08
2.05845e-07
8.80187e-08
2.67435e-07
4.5348e-09
3.13522e-07
8.62609e-08
8.33065e-08
4.14027e-07
-1.72898e-07
4.22245e-07
-2.56961e-07
5.48153e-07
-2.14944e-07
3.13539e-07
-2.08364e-07
-1.16488e-07
-7.75919e-08
-3.28542e-07
2.22213e-08
6.53121e-07
-9.35371e-08
-5.73832e-07
-1.95287e-07
-6.24752e-07
-1.50331e-07
-1.45819e-07
-1.47692e-07
-1.07205e-06
-3.10045e-08
-1.22274e-06
-3.3892e-06
7.05058e-08
2.80783e-06
6.79119e-08
1.58647e-06
1.38451e-07
3.62549e-07
1.22998e-07
6.36801e-08
1.93662e-09
2.0908e-07
5.36326e-08
-4.71612e-08
2.13744e-07
-7.38502e-08
2.30295e-07
3.97476e-07
1.38947e-07
5.13593e-07
5.66e-08
6.30501e-07
-3.46746e-09
3.73606e-07
-1.71883e-07
5.1927e-08
-2.75393e-07
-2.25032e-07
2.66682e-08
3.5106e-07
3.32739e-08
-5.80438e-07
-1.65899e-07
-4.25579e-07
2.7475e-07
-5.86468e-07
2.30026e-07
-1.02733e-06
-1.34401e-08
-9.79277e-07
-3.40264e-06
4.55121e-08
2.76232e-06
1.02908e-07
1.52907e-06
1.27314e-08
4.52726e-07
-1.26629e-07
2.0304e-07
-1.02184e-07
1.84635e-07
-1.27255e-07
-2.209e-08
-1.39111e-07
-6.19938e-08
5.57071e-08
2.02657e-07
2.2182e-07
3.4748e-07
2.17e-07
6.35321e-07
1.00102e-07
4.90504e-07
1.06589e-08
1.4137e-07
-2.05853e-07
-8.51979e-09
3.72646e-08
1.07943e-07
2.79666e-07
-8.2284e-07
1.64895e-07
-3.10808e-07
3.12075e-07
-7.33648e-07
1.7647e-07
-8.91726e-07
5.02e-08
-8.53007e-07
-3.35244e-06
1.4114e-07
2.62118e-06
1.67224e-07
1.50299e-06
1.51018e-07
4.68932e-07
8.83454e-08
2.65713e-07
1.30876e-08
2.59893e-07
-5.84284e-08
4.9426e-08
-7.23034e-08
-4.81188e-08
3.00011e-08
1.00353e-07
1.29626e-07
2.47855e-07
3.67071e-07
3.97876e-07
3.2214e-07
5.35435e-07
1.74093e-07
2.89417e-07
9.25057e-08
7.30672e-08
2.88727e-07
-8.82782e-08
2.54205e-07
-7.88318e-07
3.38644e-07
-3.95247e-07
3.10982e-07
-7.05985e-07
-3.30504e-08
-5.47693e-07
4.03104e-08
-9.26368e-07
-3.31213e-06
1.04413e-07
2.51677e-06
1.99141e-07
1.40826e-06
1.27616e-07
5.40457e-07
3.44272e-07
4.90567e-08
3.54352e-07
2.49814e-07
4.14872e-07
-1.10947e-08
5.96976e-07
-2.30222e-07
3.36437e-07
3.60892e-07
5.86664e-07
-2.37148e-09
7.86255e-07
1.98285e-07
8.65285e-07
4.56405e-07
8.78284e-07
2.76418e-07
8.85053e-07
6.62989e-08
1.03251e-06
-2.35732e-07
9.93253e-07
-7.49066e-07
9.17678e-07
-3.19672e-07
3.04654e-07
-9.29615e-08
-9.92716e-08
-1.43768e-07
-5.21127e-08
-9.73527e-07
-3.36424e-06
2.03577e-07
2.31319e-06
3.64619e-07
1.24722e-06
3.62509e-07
5.42566e-07
2.22982e-07
1.88583e-07
4.00589e-07
7.22069e-08
5.47114e-07
-1.5762e-07
4.58677e-07
-1.41785e-07
5.63393e-07
2.56175e-07
7.56935e-07
-1.95914e-07
9.70074e-07
-1.48537e-08
1.00095e-06
4.25527e-07
1.12199e-06
1.55382e-07
1.12105e-06
6.72405e-08
8.7857e-07
6.74389e-09
5.89774e-07
-4.60269e-07
-1.9167e-08
2.89269e-07
-1.38942e-07
2.68139e-08
3.35224e-07
-6.17935e-07
1.7635e-07
-8.14653e-07
-3.18789e-06
2.36183e-07
2.07701e-06
2.85283e-07
1.19812e-06
3.93213e-07
4.34637e-07
3.43956e-07
2.3784e-07
3.18869e-07
9.72941e-08
3.77732e-07
-2.16483e-07
4.16627e-07
-1.80679e-07
1.00526e-06
-3.3246e-07
1.13373e-06
-3.24382e-07
1.15589e-06
-3.7009e-08
1.10176e-06
4.79654e-07
1.01916e-06
2.37979e-07
1.01783e-06
6.85701e-08
5.98149e-07
4.26426e-07
2.10834e-07
-7.2953e-08
1.04194e-08
4.89683e-07
5.84217e-07
-5.46984e-07
3.14224e-07
-3.47941e-07
4.05645e-08
-5.40994e-07
-3.14733e-06
3.9876e-07
1.67825e-06
6.74444e-07
9.22436e-07
6.38651e-07
4.7043e-07
7.07728e-07
1.68763e-07
7.41986e-07
6.30359e-08
8.02459e-07
-2.76957e-07
9.24911e-07
-3.03131e-07
9.97035e-07
-4.04585e-07
9.1283e-07
-2.40177e-07
8.8281e-07
-6.98863e-09
1.07354e-06
2.88927e-07
1.11917e-06
1.92349e-07
1.16229e-06
2.54427e-08
1.14096e-06
4.47766e-07
1.21196e-06
-1.43958e-07
1.05889e-06
6.42748e-07
8.32438e-07
-3.20527e-07
1.80734e-07
3.03763e-07
3.52339e-07
-7.126e-07
-2.79499e-06
5.36849e-07
1.1414e-06
8.16563e-07
6.42722e-07
9.27093e-07
3.599e-07
8.97319e-07
1.98537e-07
7.57327e-07
2.03028e-07
3.81952e-07
9.84177e-08
-8.82369e-08
1.67059e-07
-6.58579e-07
1.65757e-07
-9.9452e-07
9.57643e-08
-1.02448e-06
2.29708e-08
-7.8904e-07
5.34882e-08
-6.12885e-07
1.6194e-08
-6.07269e-07
1.98266e-08
-2.9162e-07
1.32117e-07
-3.12972e-07
-1.22606e-07
1.13828e-07
2.15948e-07
-6.62582e-08
-1.40441e-07
3.00377e-07
-6.28723e-08
7.83463e-07
-1.19568e-06
-2.01153e-06
1.1414e-06
1.78412e-06
2.14402e-06
2.34256e-06
2.54559e-06
2.644e-06
2.81106e-06
2.97682e-06
3.07258e-06
3.09556e-06
3.14904e-06
3.16524e-06
3.18506e-06
3.31718e-06
3.19458e-06
3.41052e-06
3.27008e-06
3.20721e-06
2.01153e-06
)
;

boundaryField
{
    movingWall
    {
        type            calculated;
        value           uniform 0;
    }
    fixedWalls
    {
        type            calculated;
        value           uniform 0;
    }
    frontAndBack
    {
        type            empty;
        value           nonuniform 0();
    }
}


// ************************************************************************* //
