/*--------------------------------*- C++ -*----------------------------------*\
| =========                 |                                                 |
| \\      /  F ield         | OpenFOAM: The Open Source CFD Toolbox           |
|  \\    /   O peration     | Version:  5.x                                   |
|   \\  /    A nd           | Web:      www.OpenFOAM.org                      |
|    \\/     M anipulation  |                                                 |
\*---------------------------------------------------------------------------*/
FoamFile
{
    version     2.0;
    format      ascii;
    class       surfaceScalarField;
    location    "17.3";
    object      phi;
}
// * * * * * * * * * * * * * * * * * * * * * * * * * * * * * * * * * * * * * //

dimensions      [0 3 -1 0 0 0 0];

internalField   nonuniform List<scalar> 
760
(
-1.33555e-06
1.33555e-06
-2.24642e-06
9.1087e-07
-2.6473e-06
4.00883e-07
-2.87707e-06
2.2977e-07
-2.94502e-06
6.79492e-08
-3.02619e-06
8.11696e-08
-3.04216e-06
1.59701e-08
-3.11108e-06
6.89158e-08
-3.12001e-06
8.93104e-09
-3.17563e-06
5.56238e-08
-3.16793e-06
-7.69972e-09
-3.19649e-06
2.85525e-08
-3.1608e-06
-3.56809e-08
-3.11948e-06
-4.13223e-08
-3.04812e-06
-7.13584e-08
-2.92173e-06
-1.26396e-07
-2.77582e-06
-1.45903e-07
-2.31451e-06
-4.61315e-07
-1.53304e-06
-7.81466e-07
-1.53304e-06
-7.91609e-07
2.12716e-06
-1.19887e-06
1.31814e-06
-1.36701e-06
5.69016e-07
-1.3826e-06
2.45366e-07
-1.39049e-06
7.58369e-08
-1.37987e-06
7.0554e-08
-1.38152e-06
1.76206e-08
-1.36979e-06
5.7184e-08
-1.38636e-06
2.54997e-08
-1.38804e-06
5.73067e-08
-1.43714e-06
4.13979e-08
-1.45726e-06
4.8671e-08
-1.46938e-06
-2.35642e-08
-1.43696e-06
-7.37444e-08
-1.41379e-06
-9.45189e-08
-1.36023e-06
-1.79965e-07
-1.31236e-06
-1.93771e-07
-1.31987e-06
-4.53801e-07
-1.0891e-06
-1.01224e-06
-2.62214e-06
-3.62573e-07
2.48973e-06
-5.59494e-07
1.51506e-06
-5.44777e-07
5.54299e-07
-5.08935e-07
2.09524e-07
-5.03809e-07
7.07103e-08
-4.95682e-07
6.24269e-08
-5.27754e-07
4.96931e-08
-5.5636e-07
8.57898e-08
-6.09631e-07
7.87712e-08
-6.50641e-07
9.83159e-08
-6.81746e-07
7.25037e-08
-6.62593e-07
2.95174e-08
-6.39808e-07
-4.63493e-08
-6.47445e-07
-6.61067e-08
-6.0634e-07
-1.35624e-07
-5.99276e-07
-1.87029e-07
-3.20583e-07
-4.72464e-07
-2.00035e-07
-5.74348e-07
-3.37121e-07
-8.75155e-07
-2.95926e-06
-1.95715e-07
2.68545e-06
-2.39134e-07
1.55848e-06
-1.81496e-07
4.96661e-07
-1.45991e-07
1.7402e-07
-1.54101e-07
7.88202e-08
-1.73021e-07
8.13468e-08
-2.18892e-07
9.55643e-08
-2.53283e-07
1.20181e-07
-2.90669e-07
1.16157e-07
-3.04158e-07
1.11805e-07
-2.85426e-07
5.37722e-08
-2.84858e-07
2.89486e-08
-2.64673e-07
-6.65338e-08
-3.35518e-07
4.73836e-09
-4.86852e-07
1.57098e-08
-5.9302e-07
-8.08607e-08
-6.14809e-07
-4.50675e-07
-4.72963e-07
-7.16194e-07
-2.54164e-07
-1.09395e-06
-3.21343e-06
-3.4895e-08
2.72034e-06
-4.409e-08
1.56767e-06
-9.75187e-09
4.62323e-07
2.75167e-08
1.36751e-07
-1.58008e-09
1.07917e-07
-4.68528e-08
1.26619e-07
-8.32244e-08
1.31936e-07
-1.12782e-07
1.49738e-07
-1.31768e-07
1.35143e-07
-1.40239e-07
1.20276e-07
-1.47123e-07
6.06555e-08
-1.55824e-07
3.76495e-08
-1.22817e-07
-9.954e-08
-2.42367e-07
1.24288e-07
-2.72619e-07
4.59615e-08
-2.69414e-07
-8.40653e-08
-2.19226e-07
-5.00863e-07
-1.3132e-07
-8.04101e-07
-7.28326e-08
-1.15244e-06
-3.28626e-06
-1.98564e-08
2.7402e-06
9.29922e-10
1.54688e-06
2.89421e-08
4.3431e-07
9.91569e-09
1.55777e-07
-3.61643e-08
1.53997e-07
-5.76565e-08
1.48112e-07
-8.09548e-08
1.55234e-07
-1.16721e-07
1.85505e-07
-1.30169e-07
1.48591e-07
-1.13046e-07
1.03153e-07
-1.67837e-07
1.15446e-07
-2.46133e-07
1.15946e-07
-9.62506e-08
-2.49422e-07
-8.63491e-08
1.14386e-07
-5.85562e-08
1.81686e-08
-6.69169e-08
-7.57046e-08
-2.61354e-07
-3.06426e-07
-2.52123e-07
-8.13332e-07
-1.03529e-07
-1.30103e-06
-3.38979e-06
6.78572e-08
2.67234e-06
9.81804e-08
1.51656e-06
8.86526e-08
4.43838e-07
5.73518e-08
1.87078e-07
5.30141e-08
1.58335e-07
1.39563e-08
1.8717e-07
-3.28194e-08
2.0201e-07
-6.98711e-08
2.22556e-07
-9.63417e-08
1.75061e-07
-1.12229e-07
1.1904e-07
-7.87474e-08
8.19651e-08
-5.97864e-08
9.69849e-08
8.64654e-08
-3.95674e-07
-7.78762e-08
2.78728e-07
-5.94165e-08
-2.91088e-10
-1.32206e-09
-1.33799e-07
-9.77289e-08
-2.10019e-07
-4.25527e-08
-8.68508e-07
2.22979e-08
-1.36589e-06
-3.36749e-06
3.64782e-08
2.63586e-06
7.50112e-08
1.47803e-06
1.11746e-07
4.07103e-07
8.47909e-08
2.14034e-07
4.9058e-08
1.94067e-07
1.71516e-08
2.19076e-07
-6.10928e-08
2.80254e-07
-7.03152e-08
2.31779e-07
-4.01276e-08
1.44874e-07
-2.27912e-07
3.06825e-07
-4.21475e-07
2.75529e-07
-2.00651e-07
-1.2384e-07
-8.32878e-09
-5.87996e-07
-1.45916e-07
4.16315e-07
-2.52884e-07
1.06677e-07
-1.93016e-07
-1.93668e-07
-1.90503e-07
-2.12531e-07
-1.67519e-07
-8.91493e-07
-2.29249e-08
-1.51048e-06
-3.39042e-06
7.34583e-08
2.5624e-06
1.04336e-07
1.44715e-06
7.49926e-08
4.36446e-07
3.9298e-08
2.49728e-07
4.74919e-08
1.85873e-07
1.1251e-07
1.54058e-07
1.59584e-07
2.33181e-07
2.29882e-07
1.61481e-07
2.28238e-07
1.46517e-07
6.49687e-08
4.70094e-07
-1.43863e-07
4.84361e-07
-6.94986e-08
-1.98204e-07
4.5671e-08
-7.03166e-07
-9.17807e-08
5.53767e-07
-4.42232e-08
5.91199e-08
4.48114e-08
-2.82702e-07
-9.63811e-09
-1.58082e-07
7.50639e-08
-9.76195e-07
2.75276e-08
-1.46294e-06
-3.36289e-06
7.58187e-08
2.48659e-06
1.29821e-07
1.39315e-06
1.47758e-07
4.18508e-07
1.85374e-07
2.12113e-07
1.36353e-07
2.34894e-07
1.44505e-07
1.45906e-07
1.69332e-07
2.08353e-07
-3.33824e-08
3.64196e-07
-3.3916e-07
4.52294e-07
-4.57797e-07
5.88731e-07
-3.58275e-07
3.84839e-07
-3.01973e-07
-2.54507e-07
-3.0643e-07
-6.98708e-07
-3.95215e-07
6.42552e-07
-9.70816e-08
-2.39014e-07
1.45862e-07
-5.25646e-07
2.73552e-07
-2.85772e-07
2.6777e-07
-9.70412e-07
-1.67942e-08
-1.17838e-06
-3.37968e-06
7.23221e-08
2.41426e-06
9.18129e-08
1.37366e-06
1.50825e-07
3.59496e-07
1.89732e-07
1.73206e-07
1.2925e-07
2.95376e-07
1.75907e-07
9.9249e-08
1.89242e-07
1.95018e-07
2.57537e-08
5.27683e-07
-1.76159e-07
6.54207e-07
-3.42116e-07
7.54688e-07
-3.50596e-07
3.93319e-07
-4.39873e-07
-1.6523e-07
-3.50853e-07
-7.87729e-07
-5.65771e-08
3.48276e-07
2.07379e-07
-5.0297e-07
3.54916e-07
-6.73182e-07
2.55902e-07
-1.86759e-07
2.44602e-07
-9.59112e-07
1.02819e-07
-1.0366e-06
-3.27686e-06
5.43843e-08
2.35988e-06
1.03376e-07
1.32467e-06
4.47612e-08
4.18112e-07
-9.30639e-08
3.11031e-07
-2.15483e-07
4.17795e-07
-1.87933e-07
7.16989e-08
-1.22511e-07
1.29597e-07
6.51658e-09
3.98655e-07
8.8321e-09
6.51892e-07
-4.30631e-09
7.67826e-07
2.24062e-08
3.66607e-07
-1.65687e-07
2.28629e-08
-3.63411e-07
-5.90004e-07
-8.30203e-08
6.78856e-08
2.47698e-08
-6.1076e-07
-1.6137e-07
-4.87043e-07
-6.90492e-08
-2.79079e-07
-5.17259e-08
-9.76435e-07
-2.96818e-08
-1.05864e-06
-3.30655e-06
8.63641e-08
2.27351e-06
1.19362e-07
1.29167e-06
-6.26877e-09
5.43743e-07
-1.2978e-07
4.34542e-07
-1.24268e-07
4.12283e-07
-2.15052e-07
1.62483e-07
-3.521e-07
2.66645e-07
-2.7648e-07
3.23036e-07
-1.00173e-07
4.75585e-07
2.14079e-08
6.46245e-07
3.82758e-08
3.49739e-07
7.25771e-08
-1.14383e-08
-1.381e-07
-3.79327e-07
1.00925e-07
-1.71139e-07
1.53885e-07
-6.63721e-07
-1.84241e-07
-1.48916e-07
3.78226e-08
-5.01144e-07
-3.09621e-08
-9.0765e-07
-5.47596e-08
-1.03484e-06
-3.36131e-06
5.17148e-08
2.2218e-06
1.53043e-07
1.19034e-06
1.3617e-07
5.60615e-07
1.31931e-07
4.38782e-07
8.56904e-08
4.58523e-07
1.37616e-07
1.10557e-07
1.15263e-07
2.88998e-07
5.00521e-08
3.88247e-07
9.05384e-08
4.35098e-07
2.01119e-07
5.35664e-07
2.53583e-07
2.97274e-07
3.06366e-07
-6.42217e-08
1.76143e-07
-2.49104e-07
3.337e-07
-3.28695e-07
4.02454e-07
-7.32475e-07
4.50956e-07
-1.97418e-07
6.00389e-07
-6.50576e-07
4.36342e-07
-7.43604e-07
1.61224e-07
-7.59724e-07
-3.20008e-06
6.92017e-08
2.1526e-06
9.19418e-08
1.1676e-06
8.64202e-08
5.66137e-07
3.59428e-07
1.65774e-07
3.9917e-07
4.18781e-07
4.85901e-07
2.38254e-08
5.57642e-07
2.17258e-07
6.36982e-07
3.08907e-07
9.56783e-07
1.15297e-07
8.80837e-07
6.11611e-07
1.07466e-06
1.03447e-07
9.69286e-07
4.11569e-08
1.00983e-06
-2.89646e-07
1.202e-06
-5.20871e-07
9.69557e-07
-5.00029e-07
1.0291e-06
-2.56965e-07
5.44722e-07
-1.66194e-07
-2.51527e-08
-1.7373e-07
-3.02369e-08
-7.5464e-07
-3.23032e-06
1.21641e-07
2.03096e-06
2.02819e-07
1.08642e-06
1.90597e-07
5.78359e-07
2.99277e-08
3.26443e-07
2.93764e-07
1.54945e-07
3.41268e-07
-2.36784e-08
3.77988e-07
1.80537e-07
8.3881e-07
-1.51915e-07
1.16415e-06
-2.10045e-07
1.33575e-06
4.40016e-07
1.33817e-06
1.01021e-07
1.37639e-06
2.93773e-09
1.04828e-06
3.84682e-08
7.72294e-07
-2.44887e-07
4.64948e-07
-1.92683e-07
-1.93221e-07
4.01205e-07
-3.49201e-07
-1.02145e-08
-4.86268e-08
-4.74304e-07
8.88061e-09
-8.12147e-07
-3.22144e-06
1.32829e-07
1.89813e-06
1.10509e-07
1.10874e-06
2.30925e-07
4.57943e-07
2.44833e-07
3.12535e-07
2.98624e-07
1.01154e-07
3.49932e-07
-7.49862e-08
6.95342e-07
-1.64873e-07
9.84528e-07
-4.41101e-07
9.98814e-07
-2.24331e-07
1.27676e-06
1.62066e-07
1.08533e-06
2.92451e-07
1.00832e-06
7.99539e-08
5.96233e-07
4.50554e-07
-4.15196e-08
3.92866e-07
-6.67365e-08
-1.67466e-07
-6.08319e-08
3.953e-07
6.03632e-07
-6.74679e-07
3.99725e-07
-2.70396e-07
8.00385e-08
-4.92461e-07
-3.1414e-06
3.73515e-07
1.52461e-06
5.68676e-07
9.13581e-07
4.98451e-07
5.28168e-07
6.22994e-07
1.87992e-07
7.31886e-07
-7.73765e-09
8.20147e-07
-1.63248e-07
9.43894e-07
-2.8862e-07
8.6809e-07
-3.65297e-07
7.41491e-07
-9.77315e-08
9.21581e-07
-1.80249e-08
1.07282e-06
1.41213e-07
1.12671e-06
2.60638e-08
1.40869e-06
1.68573e-07
1.25002e-06
5.51532e-07
1.04811e-06
3.44471e-08
1.02017e-06
4.23237e-07
7.3134e-07
-3.85846e-07
3.79873e-08
4.22957e-07
3.05135e-07
-7.59608e-07
-2.83626e-06
4.48542e-07
1.07607e-06
7.31271e-07
6.30851e-07
8.99053e-07
3.60387e-07
8.52722e-07
2.34323e-07
6.37787e-07
2.07197e-07
3.59288e-07
1.15251e-07
-1.04087e-07
1.74756e-07
-6.12816e-07
1.43432e-07
-8.20971e-07
1.10424e-07
-9.10973e-07
7.19768e-08
-8.04985e-07
3.52251e-08
-7.52989e-07
-2.59315e-08
-5.99682e-07
1.52658e-08
-1.72761e-07
1.24611e-07
-1.45107e-07
6.79337e-09
1.35075e-07
1.43054e-07
-2.05516e-07
-4.52545e-08
2.72572e-07
-5.51321e-08
7.85145e-07
-1.27218e-06
-2.05112e-06
1.07607e-06
1.70692e-06
2.06731e-06
2.30163e-06
2.50883e-06
2.62408e-06
2.79884e-06
2.94227e-06
3.05269e-06
3.12467e-06
3.15989e-06
3.13396e-06
3.14923e-06
3.27384e-06
3.28063e-06
3.42369e-06
3.37843e-06
3.3233e-06
2.05112e-06
)
;

boundaryField
{
    movingWall
    {
        type            calculated;
        value           uniform 0;
    }
    fixedWalls
    {
        type            calculated;
        value           uniform 0;
    }
    frontAndBack
    {
        type            empty;
        value           nonuniform 0();
    }
}


// ************************************************************************* //
