/*--------------------------------*- C++ -*----------------------------------*\
| =========                 |                                                 |
| \\      /  F ield         | OpenFOAM: The Open Source CFD Toolbox           |
|  \\    /   O peration     | Version:  5.x                                   |
|   \\  /    A nd           | Web:      www.OpenFOAM.org                      |
|    \\/     M anipulation  |                                                 |
\*---------------------------------------------------------------------------*/
FoamFile
{
    version     2.0;
    format      ascii;
    class       surfaceScalarField;
    location    "8.4";
    object      phi;
}
// * * * * * * * * * * * * * * * * * * * * * * * * * * * * * * * * * * * * * //

dimensions      [0 3 -1 0 0 0 0];

internalField   nonuniform List<scalar> 
760
(
-9.67134e-07
9.67134e-07
-1.78584e-06
8.18708e-07
-2.32334e-06
5.37503e-07
-2.68926e-06
3.65916e-07
-2.61991e-06
-6.93524e-08
-2.56687e-06
-5.30389e-08
-2.38074e-06
-1.86134e-07
-2.06679e-06
-3.13942e-07
-2.14186e-06
7.50683e-08
-2.26447e-06
1.22612e-07
-2.24052e-06
-2.3957e-08
-2.23827e-06
-2.24434e-09
-2.30947e-06
7.12029e-08
-2.32351e-06
1.40328e-08
-2.33281e-06
9.30025e-09
-2.26915e-06
-6.36614e-08
-2.1991e-06
-7.00471e-08
-1.87919e-06
-3.19912e-07
-1.25851e-06
-6.20674e-07
-1.25851e-06
-7.8277e-07
1.7499e-06
-1.54639e-06
1.58233e-06
-1.92378e-06
9.14893e-07
-1.9198e-06
3.61933e-07
-1.8549e-06
-1.3425e-07
-1.56243e-06
-3.45513e-07
-1.33498e-06
-4.13576e-07
-1.26168e-06
-3.87246e-07
-1.0344e-06
-1.52215e-07
-8.53947e-07
-5.78382e-08
-8.63277e-07
-1.4627e-08
-8.76055e-07
1.05338e-08
-8.97287e-07
9.2434e-08
-9.015e-07
1.8246e-08
-9.73056e-07
8.0857e-08
-9.68429e-07
-6.82889e-08
-1.00429e-06
-3.41838e-08
-1.01391e-06
-3.10291e-07
-8.67809e-07
-7.66779e-07
-2.12632e-06
-5.64163e-07
2.31407e-06
-1.05589e-06
2.07406e-06
-1.29092e-06
1.14992e-06
-1.27618e-06
3.47191e-07
-1.13583e-06
-2.74598e-07
-9.41203e-07
-5.40138e-07
-7.75358e-07
-5.79421e-07
-6.58154e-07
-5.0445e-07
-4.94024e-07
-3.16344e-07
-3.65975e-07
-1.85888e-07
-2.80025e-07
-1.00577e-07
-2.06637e-07
-6.28543e-08
-1.44229e-07
3.00263e-08
-1.19674e-07
-6.30875e-09
-8.93933e-08
5.0576e-08
-7.28656e-08
-8.48167e-08
-5.92512e-08
-4.77981e-08
-1.1295e-07
-2.56592e-07
-2.39659e-07
-6.4007e-07
-2.36598e-06
-2.95267e-07
2.60933e-06
-4.87166e-07
2.26596e-06
-5.47023e-07
1.20978e-06
-4.68021e-07
2.68189e-07
-3.66371e-07
-3.76249e-07
-2.69817e-07
-6.36692e-07
-2.04933e-07
-6.44305e-07
-1.82393e-07
-5.2699e-07
-1.36318e-07
-3.62419e-07
-8.94524e-08
-2.32754e-07
-6.26895e-08
-1.2734e-07
-4.69207e-08
-7.86231e-08
-3.04827e-08
1.35883e-08
-2.20397e-08
-1.47518e-08
-2.82923e-08
5.68286e-08
-6.05669e-08
-5.2542e-08
-1.13191e-07
4.82641e-09
-1.80003e-07
-1.8978e-07
-1.54734e-07
-6.65339e-07
-2.52072e-06
-6.43552e-08
2.67369e-06
-3.26394e-10
2.20193e-06
1.15521e-07
1.09393e-06
2.15528e-07
1.68182e-07
2.33508e-07
-3.94229e-07
1.8052e-07
-5.83704e-07
8.73332e-08
-5.51118e-07
-2.89106e-09
-4.36766e-07
-4.79736e-08
-3.17337e-07
-6.4668e-08
-2.16059e-07
-5.94366e-08
-1.32571e-07
-4.36781e-08
-9.43816e-08
-5.49594e-09
-2.45939e-08
2.22577e-08
-4.25054e-08
4.73309e-08
3.17554e-08
5.1016e-08
-5.62271e-08
2.34797e-08
3.23627e-08
-6.55097e-09
-1.5975e-07
-2.98508e-08
-6.42039e-07
-2.55057e-06
1.70503e-07
2.50319e-06
4.89893e-07
1.88254e-06
6.87504e-07
8.96321e-07
7.24677e-07
1.31009e-07
6.17779e-07
-2.87331e-07
4.49514e-07
-4.15439e-07
2.93875e-07
-3.95478e-07
1.87e-07
-3.29891e-07
1.17051e-07
-2.47388e-07
8.09551e-08
-1.79963e-07
5.8463e-08
-1.10079e-07
4.65873e-08
-8.25059e-08
3.92822e-08
-1.72888e-08
3.33907e-08
-3.66138e-08
3.19572e-08
3.31889e-08
1.37113e-08
-3.79812e-08
1.64898e-08
2.95843e-08
-2.28233e-09
-1.40977e-07
2.83511e-09
-6.47156e-07
-2.54773e-06
4.122e-07
2.09099e-06
8.27208e-07
1.46753e-06
9.9759e-07
7.25938e-07
9.46889e-07
1.8171e-07
7.719e-07
-1.12342e-07
5.76155e-07
-2.19694e-07
4.10235e-07
-2.29559e-07
2.88112e-07
-2.07768e-07
1.99337e-07
-1.58612e-07
1.47142e-07
-1.27769e-07
1.10076e-07
-7.30127e-08
9.26729e-08
-6.51025e-08
7.93894e-08
-4.00524e-09
7.46711e-08
-3.18955e-08
6.73288e-08
4.05312e-08
5.34221e-08
-2.40745e-08
3.31898e-08
4.98165e-08
1.13885e-08
-1.19176e-07
-6.25159e-10
-6.35143e-07
-2.54836e-06
5.60779e-07
1.53021e-06
9.26948e-07
1.10136e-06
1.01422e-06
6.3867e-07
9.11605e-07
2.84322e-07
7.26818e-07
7.2445e-08
5.50464e-07
-4.33396e-08
4.04345e-07
-8.34401e-08
2.96387e-07
-9.98106e-08
2.13892e-07
-7.61166e-08
1.59003e-07
-7.28807e-08
1.16495e-07
-3.05044e-08
8.98998e-08
-3.85078e-08
7.1519e-08
1.43756e-08
5.91105e-08
-1.9487e-08
5.07463e-08
4.88954e-08
4.2933e-08
-1.62612e-08
3.63464e-08
5.64031e-08
3.25658e-08
-1.15396e-07
2.02645e-08
-6.22841e-07
-2.52809e-06
4.97803e-07
1.0324e-06
7.72818e-07
8.26344e-07
8.48253e-07
5.63235e-07
7.95607e-07
3.36968e-07
6.88148e-07
1.79904e-07
5.62958e-07
8.185e-08
4.43517e-07
3.60007e-08
3.42616e-07
1.09055e-09
2.61818e-07
4.68134e-09
2.07829e-07
-1.88918e-08
1.65474e-07
1.18505e-08
1.40504e-07
-1.35376e-08
1.20013e-07
3.4867e-08
9.92647e-08
1.26103e-09
8.16486e-08
6.65115e-08
5.48331e-08
1.05543e-08
3.48815e-08
7.63547e-08
-4.6924e-09
-7.58216e-08
-1.88276e-08
-6.08706e-07
-2.54692e-06
4.03399e-07
6.29004e-07
5.98822e-07
6.30922e-07
6.40728e-07
5.21329e-07
5.93173e-07
3.84522e-07
5.00398e-07
2.7268e-07
4.17567e-07
1.64681e-07
3.43885e-07
1.09683e-07
2.85944e-07
5.90313e-08
2.30142e-07
6.04836e-08
1.81416e-07
2.9834e-08
1.42744e-07
5.0522e-08
1.04669e-07
2.45376e-08
8.63726e-08
5.31637e-08
5.8998e-08
2.86356e-08
6.39684e-08
6.1541e-08
7.56223e-08
-1.09958e-09
6.1019e-08
9.0958e-08
5.3187e-08
-6.79896e-08
3.51243e-08
-5.90644e-07
-2.51179e-06
2.97871e-07
3.31132e-07
4.57954e-07
4.7084e-07
5.55107e-07
4.24176e-07
5.68659e-07
3.7097e-07
5.31271e-07
3.10068e-07
4.48678e-07
2.47273e-07
3.63846e-07
1.94516e-07
2.84019e-07
1.38859e-07
2.31483e-07
1.13019e-07
1.86357e-07
7.49605e-08
1.66699e-07
7.01796e-08
1.43585e-07
4.7652e-08
1.38963e-07
5.77848e-08
1.27782e-07
3.98171e-08
1.01154e-07
8.81691e-08
5.19132e-08
4.81411e-08
5.17717e-08
9.10996e-08
1.95099e-09
-1.8169e-08
-3.38791e-08
-5.54814e-07
-2.54567e-06
4.24412e-07
-9.32797e-08
4.34306e-07
4.60945e-07
4.18027e-07
4.40455e-07
4.15106e-07
3.73891e-07
4.12546e-07
3.12628e-07
4.01078e-07
2.58742e-07
3.52522e-07
2.43071e-07
2.98471e-07
1.92909e-07
2.35942e-07
1.75549e-07
1.87455e-07
1.23448e-07
1.37842e-07
1.19792e-07
9.75524e-08
8.79416e-08
5.98066e-08
9.55307e-08
-9.10706e-09
1.08731e-07
3.35481e-08
4.55139e-08
-9.70843e-09
9.13977e-08
2.2839e-08
5.85522e-08
5.26308e-08
-4.79607e-08
1.75787e-08
-5.19761e-07
-2.5281e-06
3.90957e-07
-4.84237e-07
4.61668e-07
3.90234e-07
4.49742e-07
4.52382e-07
2.97051e-07
5.26582e-07
1.67958e-07
4.4172e-07
1.00655e-07
3.26046e-07
8.52105e-08
2.58515e-07
7.49558e-08
2.03164e-07
9.46792e-08
1.55825e-07
7.98918e-08
1.38235e-07
1.10557e-07
8.91271e-08
6.11211e-08
1.37377e-07
1.32243e-07
2.44084e-08
1.15642e-07
1.25332e-07
1.09712e-07
5.14435e-08
9.0261e-08
1.10849e-07
1.00164e-07
4.86493e-08
7.84502e-08
-2.6247e-08
-2.90265e-08
-4.12285e-07
-2.55712e-06
1.14736e-07
-5.98972e-07
2.12832e-07
2.92138e-07
3.57745e-07
3.07468e-07
5.16642e-07
3.67685e-07
5.9347e-07
3.64892e-07
5.63366e-07
3.56149e-07
5.16807e-07
3.05074e-07
4.32824e-07
2.87147e-07
3.61209e-07
2.2744e-07
2.85072e-07
2.14373e-07
2.36786e-07
1.37413e-07
1.8454e-07
1.89624e-07
8.77168e-08
1.21231e-07
4.49006e-08
1.68149e-07
-1.25821e-07
2.22165e-07
-3.33438e-07
3.18466e-07
-1.11385e-07
-1.73404e-07
4.74768e-09
-1.42379e-07
2.64677e-08
-4.34005e-07
-2.53065e-06
1.33894e-07
-7.32867e-07
1.51451e-07
2.74582e-07
-1.62981e-08
4.75217e-07
-3.54e-08
3.86787e-07
-6.51577e-08
3.9465e-07
-2.96263e-08
3.20618e-07
-7.82503e-08
3.53698e-07
-6.75632e-08
2.7646e-07
-1.02515e-07
2.62391e-07
-9.4522e-08
2.0638e-07
-1.3093e-07
1.73821e-07
-1.61035e-07
2.19729e-07
-1.35158e-07
9.53548e-08
-2.50366e-07
2.83357e-07
1.61406e-08
-4.43422e-08
1.20884e-07
2.13723e-07
7.78013e-09
-6.03003e-08
-1.46185e-07
1.1586e-08
-8.46081e-08
-4.95582e-07
-2.61526e-06
6.84703e-08
-8.01337e-07
5.12166e-08
2.91835e-07
7.65338e-08
4.499e-07
2.32994e-07
2.30327e-07
2.37036e-07
3.90608e-07
2.89059e-07
2.68595e-07
3.61427e-07
2.81329e-07
3.88081e-07
2.49807e-07
4.53646e-07
1.96825e-07
4.40648e-07
2.19379e-07
4.79592e-07
1.34877e-07
4.02606e-07
2.96715e-07
4.81674e-07
1.62869e-08
3.6914e-07
3.9589e-07
2.64082e-07
6.07163e-08
2.69662e-07
2.08143e-07
1.38809e-07
7.0553e-08
4.53924e-08
1.05002e-07
7.43874e-08
-5.24577e-07
-2.54087e-06
-3.5509e-07
-4.46247e-07
-6.00862e-07
5.37607e-07
-3.92918e-07
2.41955e-07
-3.80073e-07
2.17483e-07
-3.29788e-07
3.40323e-07
-2.9862e-07
2.37427e-07
-2.44333e-07
2.27043e-07
-2.35298e-07
2.40771e-07
-2.28059e-07
1.89586e-07
-1.98081e-07
1.89401e-07
-2.14555e-07
1.51351e-07
-1.09459e-07
1.91618e-07
-1.98711e-07
1.05539e-07
-1.07455e-07
3.04634e-07
-1.08776e-07
6.20374e-08
-2.54652e-07
3.54019e-07
1.69659e-07
-3.53758e-07
1.91398e-07
8.32636e-08
3.46798e-08
-3.67859e-07
-2.50619e-06
-7.96735e-08
-3.66573e-07
2.8175e-07
1.76184e-07
2.75984e-07
2.47721e-07
2.67252e-07
2.26215e-07
3.35926e-07
2.71649e-07
3.64504e-07
2.08849e-07
4.16985e-07
1.74561e-07
4.78142e-07
1.79614e-07
4.827e-07
1.85029e-07
5.32204e-07
1.39897e-07
4.87248e-07
1.96307e-07
5.37764e-07
1.41101e-07
5.52413e-07
9.08897e-08
4.94091e-07
3.62957e-07
6.35409e-07
-7.92809e-08
5.41321e-07
4.48107e-07
4.6135e-07
-2.73787e-07
2.35855e-07
3.08758e-07
2.43004e-07
-3.75008e-07
-2.26319e-06
-7.5557e-07
3.88997e-07
-8.62765e-07
2.83378e-07
-8.62706e-07
2.47662e-07
-7.94092e-07
1.57601e-07
-7.00135e-07
1.77692e-07
-6.41502e-07
1.50216e-07
-6.00747e-07
1.33806e-07
-5.59041e-07
1.37909e-07
-5.03984e-07
1.29972e-07
-4.66973e-07
1.02885e-07
-3.83881e-07
1.13216e-07
-3.25293e-07
8.25127e-08
-3.07158e-07
7.27555e-08
-1.13156e-07
1.68954e-07
-2.82305e-07
8.98678e-08
1.28841e-08
1.52918e-07
-2.01847e-07
-5.90555e-08
1.34595e-07
-2.76836e-08
7.26606e-07
-9.67019e-07
-1.53658e-06
3.88997e-07
6.72375e-07
9.20038e-07
1.07764e-06
1.25533e-06
1.40555e-06
1.53935e-06
1.67726e-06
1.80723e-06
1.91012e-06
2.02333e-06
2.10585e-06
2.1786e-06
2.34756e-06
2.43743e-06
2.59034e-06
2.53129e-06
2.5036e-06
1.53658e-06
)
;

boundaryField
{
    movingWall
    {
        type            calculated;
        value           uniform 0;
    }
    fixedWalls
    {
        type            calculated;
        value           uniform 0;
    }
    frontAndBack
    {
        type            empty;
        value           nonuniform 0();
    }
}


// ************************************************************************* //
