/*--------------------------------*- C++ -*----------------------------------*\
| =========                 |                                                 |
| \\      /  F ield         | OpenFOAM: The Open Source CFD Toolbox           |
|  \\    /   O peration     | Version:  5.x                                   |
|   \\  /    A nd           | Web:      www.OpenFOAM.org                      |
|    \\/     M anipulation  |                                                 |
\*---------------------------------------------------------------------------*/
FoamFile
{
    version     2.0;
    format      ascii;
    class       volVectorField;
    location    "8.4";
    object      U;
}
// * * * * * * * * * * * * * * * * * * * * * * * * * * * * * * * * * * * * * //

dimensions      [0 1 -1 0 0 0 0];

internalField   nonuniform List<vector> 
400
(
(-0.00748381 0.0108741 0)
(-0.0330151 0.00653259 0)
(-0.0422646 0.0059702 0)
(-0.0521699 0.00660423 0)
(-0.0538837 -0.00294846 0)
(-0.0480862 0.00187486 0)
(-0.0541234 -0.00350792 0)
(-0.0406559 -0.00967059 0)
(-0.0397126 0.00316663 0)
(-0.0469143 0.00292648 0)
(-0.045028 -0.00393716 0)
(-0.0443194 -0.00320895 0)
(-0.0457121 -0.00112301 0)
(-0.0467192 -0.00156238 0)
(-0.0478462 -0.0023107 0)
(-0.0463028 -0.00277008 0)
(-0.0456204 -0.00306275 0)
(-0.0405523 -0.00608938 0)
(-0.039529 -0.00984143 0)
(-0.0045715 -0.0172637 0)
(-0.00634136 0.0266996 0)
(-0.0271053 0.024391 0)
(-0.0380216 0.0142524 0)
(-0.0386825 0.00692131 0)
(-0.0373777 -0.000295346 0)
(-0.033775 -0.00425766 0)
(-0.0291031 -0.0045032 0)
(-0.0245582 -0.00344534 0)
(-0.0236882 0.000118608 0)
(-0.0189011 0.00210009 0)
(-0.0166893 0.00277823 0)
(-0.0167128 0.003072 0)
(-0.0185122 0.0039057 0)
(-0.0168395 0.00202667 0)
(-0.0204034 0.00256614 0)
(-0.0173439 -0.000137158 0)
(-0.022739 -0.000400318 0)
(-0.016251 -0.00855183 0)
(-0.0274983 -0.0180802 0)
(-0.00283785 -0.0381829 0)
(-0.00562535 0.0403253 0)
(-0.0188232 0.0360981 0)
(-0.0262063 0.0200324 0)
(-0.0256967 0.00633806 0)
(-0.0236283 -0.00554458 0)
(-0.0199859 -0.0104188 0)
(-0.0168869 -0.0117347 0)
(-0.0139743 -0.0113997 0)
(-0.011852 -0.00676741 0)
(-0.0081579 -0.00422856 0)
(-0.00715021 -0.00314808 0)
(-0.00344879 -0.00254912 0)
(-0.00539336 -0.000174964 0)
(8.86045e-05 -0.0011794 0)
(-0.00536294 0.000861498 0)
(0.00218433 -0.00234169 0)
(-0.00542132 -0.000661148 0)
(0.00324762 -0.00275633 0)
(-0.00847002 -0.0103288 0)
(0.000441261 -0.0443179 0)
(-0.0037945 0.0493831 0)
(-0.00942542 0.0441092 0)
(-0.0117579 0.0242555 0)
(-0.00972176 0.00664051 0)
(-0.00793352 -0.00618138 0)
(-0.0057027 -0.0116694 0)
(-0.00481572 -0.0122313 0)
(-0.00350597 -0.00974144 0)
(-0.00376195 -0.00634044 0)
(-0.00170614 -0.00372962 0)
(-0.00222271 -0.00137067 0)
(-2.51011e-05 -0.000278459 0)
(-0.00205889 0.00135318 0)
(0.000998719 0.000883951 0)
(-0.00204042 0.00135283 0)
(0.00108358 -0.00085061 0)
(-0.00376905 -0.00103475 0)
(-0.00030213 -0.00681903 0)
(-0.00774277 -0.015562 0)
(0.00244081 -0.0492215 0)
(-0.00208888 0.054378 0)
(-0.00103268 0.0470527 0)
(0.000834872 0.0247007 0)
(0.0041725 0.00451558 0)
(0.0053238 -0.0081749 0)
(0.00478954 -0.013018 0)
(0.0026865 -0.0128406 0)
(0.000941098 -0.0106182 0)
(-0.0010885 -0.00772415 0)
(-0.000750456 -0.00526368 0)
(-0.00208664 -0.00339105 0)
(-5.26629e-05 -0.00262213 0)
(-0.00192989 -0.00082325 0)
(0.00179524 -0.00149555 0)
(-0.00108087 0.000708399 0)
(0.00323199 -0.00146374 0)
(-0.00146007 0.00114544 0)
(0.00258505 -0.00141195 0)
(-0.00297861 -0.0107297 0)
(0.00208477 -0.049508 0)
(-0.000582559 0.055144 0)
(0.00649931 0.0434851 0)
(0.011859 0.0210416 0)
(0.0155809 0.00286333 0)
(0.0145812 -0.00690905 0)
(0.0111648 -0.00969239 0)
(0.00714266 -0.00893089 0)
(0.00482088 -0.00710254 0)
(0.0023216 -0.0051479 0)
(0.0025929 -0.00351816 0)
(0.000346756 -0.00210039 0)
(0.00223963 -0.0012623 0)
(-0.000619573 -0.000114782 0)
(0.00241511 -9.01379e-05 0)
(-0.00130261 0.000700702 0)
(0.00281334 -0.000551273 0)
(-0.00243407 0.000339306 0)
(0.00330742 -0.00438176 0)
(-0.00348977 -0.0143489 0)
(0.00368311 -0.0513703 0)
(0.00228791 0.0482908 0)
(0.0129246 0.0345032 0)
(0.0190521 0.0165619 0)
(0.0207467 0.00307612 0)
(0.0179043 -0.00385994 0)
(0.0137646 -0.00631361 0)
(0.0096499 -0.00642605 0)
(0.00702618 -0.00577009 0)
(0.00422941 -0.00450667 0)
(0.00401321 -0.00368101 0)
(0.00153113 -0.0023015 0)
(0.00317671 -0.00219325 0)
(0.000216379 -0.000646854 0)
(0.00325898 -0.00152363 0)
(-0.0005874 0.000483581 0)
(0.00359822 -0.00116709 0)
(-0.00176539 0.000692436 0)
(0.00335152 -0.00175749 0)
(-0.00306416 -0.0119502 0)
(0.00309389 -0.0499914 0)
(0.00512088 0.0360568 0)
(0.0159849 0.024592 0)
(0.020258 0.0125513 0)
(0.0200595 0.00409521 0)
(0.016717 -0.000595273 0)
(0.0129471 -0.00240002 0)
(0.00928595 -0.00264844 0)
(0.00721632 -0.00234042 0)
(0.00436128 -0.00165587 0)
(0.00452118 -0.00119994 0)
(0.0014712 -0.000461279 0)
(0.00353517 -0.000206743 0)
(-0.000280916 0.000530654 0)
(0.00346681 0.000416587 0)
(-0.00142617 0.00129986 0)
(0.00378188 0.000366603 0)
(-0.00239694 0.00148506 0)
(0.00418768 -0.00257638 0)
(-0.0032138 -0.0128078 0)
(0.00424096 -0.0510991 0)
(0.00536025 0.0240266 0)
(0.0134988 0.0186662 0)
(0.0168069 0.0123887 0)
(0.0168719 0.0069112 0)
(0.0150608 0.0033202 0)
(0.0127519 0.000587983 0)
(0.00997755 -0.000831762 0)
(0.00803696 -0.0018681 0)
(0.00548035 -0.00157186 0)
(0.00529935 -0.00192714 0)
(0.00266393 -0.00089171 0)
(0.00431157 -0.00151845 0)
(0.000937019 -6.54355e-05 0)
(0.00422796 -0.0013506 0)
(-0.000625542 0.0004606 0)
(0.00426937 -0.00115748 0)
(-0.00242656 0.000577735 0)
(0.00414002 -0.00242935 0)
(-0.00445776 -0.0128367 0)
(0.00394159 -0.0506973 0)
(0.00430458 0.0162786 0)
(0.0109508 0.0134371 0)
(0.0126971 0.00940738 0)
(0.0126759 0.006069 0)
(0.0110271 0.00366406 0)
(0.00931241 0.00290774 0)
(0.00734986 0.00246473 0)
(0.00671 0.00196164 0)
(0.00444277 0.00184145 0)
(0.00507916 0.00131565 0)
(0.00184207 0.00148495 0)
(0.00421924 0.00110819 0)
(-0.000382751 0.00166585 0)
(0.00420589 0.00144949 0)
(-0.00219304 0.00245685 0)
(0.00515341 0.0017067 0)
(-0.00261235 0.00270116 0)
(0.0055231 -0.00031604 0)
(-0.0038454 -0.0108051 0)
(0.00556229 -0.0504042 0)
(0.00342419 0.0086062 0)
(0.00773484 0.0119104 0)
(0.0105777 0.0111974 0)
(0.0115425 0.00910062 0)
(0.0111656 0.00685678 0)
(0.0100895 0.00323536 0)
(0.00797549 0.00153136 0)
(0.00673777 7.15668e-05 0)
(0.0045116 0.000269677 0)
(0.00497088 -0.00034843 0)
(0.00223385 0.000261424 0)
(0.00473318 -0.000334432 0)
(0.000678963 0.00016995 0)
(0.00524875 -0.000544856 0)
(-0.000557653 -0.000283705 0)
(0.00504711 -0.00178943 0)
(-0.00334207 0.000701338 0)
(0.0058412 -0.00263694 0)
(-0.00586473 -0.0135563 0)
(0.00483203 -0.0510785 0)
(0.00593683 0.00525899 0)
(0.00995827 0.00726474 0)
(0.00804113 0.00569725 0)
(0.00838877 0.00549421 0)
(0.00835924 0.00581967 0)
(0.00841689 0.00719552 0)
(0.00736089 0.00675971 0)
(0.00704891 0.00598806 0)
(0.00460755 0.00468668 0)
(0.00514714 0.00373471 0)
(0.00202912 0.00289122 0)
(0.00378704 0.00255484 0)
(-0.000158946 0.00248164 0)
(0.00279714 0.00243449 0)
(-0.00327337 0.00423061 0)
(0.00488211 0.00399079 0)
(-0.00544675 0.00317113 0)
(0.0066581 0.00201983 0)
(-0.00501225 -0.00768741 0)
(0.00595229 -0.0496862 0)
(0.00488889 -0.0093905 0)
(0.00968842 0.0111942 0)
(0.00969741 0.0113487 0)
(0.00789444 0.00970637 0)
(0.00400447 0.00653614 0)
(0.00248956 0.0026046 0)
(0.00167634 0.00240544 0)
(0.00166509 0.00112948 0)
(0.00142719 0.00179049 0)
(0.00235804 0.000694798 0)
(0.00081779 0.00145277 0)
(0.00372162 0.00053106 0)
(-0.00144123 0.000881262 0)
(0.00708122 0.00141995 0)
(-0.00292375 -0.00278977 0)
(0.00785994 -0.000675945 0)
(-0.00478153 -0.00100872 0)
(0.00943285 -0.00417614 0)
(-0.00697231 -0.0143667 0)
(0.00620499 -0.0514831 0)
(-0.0018081 -0.0105327 0)
(0.00560953 0.00333167 0)
(0.00404257 0.0073498 0)
(0.00922616 0.0106832 0)
(0.0118901 0.0105732 0)
(0.0120185 0.0105904 0)
(0.0104804 0.00824557 0)
(0.0105091 0.00750466 0)
(0.00655226 0.00490338 0)
(0.00814755 0.00535338 0)
(0.0029944 0.0024685 0)
(0.00665123 0.00550245 0)
(0.000570929 0.000312076 0)
(0.00297057 0.00414463 0)
(-0.00101308 0.00533214 0)
(-0.00397879 0.00549209 0)
(-0.0102861 0.00324616 0)
(0.00655113 0.0033949 0)
(-0.00650274 -0.000576743 0)
(0.00779227 -0.0496656 0)
(-0.00435846 -0.0119638 0)
(0.00926938 0.00948379 0)
(-0.00272409 0.00454967 0)
(0.00195931 0.00452719 0)
(-0.00345661 0.00456232 0)
(0.00100365 0.00386024 0)
(-0.00212942 0.00438198 0)
(-0.0011513 0.00357714 0)
(-0.00141692 0.00383977 0)
(-0.00291694 0.00265262 0)
(-0.000558143 0.00273141 0)
(-0.00512972 0.00144119 0)
(-0.000750506 0.00423712 0)
(-0.00505357 0.00201881 0)
(-0.00537497 0.00251244 0)
(0.00622921 0.00639126 0)
(-0.00215221 -0.0110881 0)
(0.00269246 -0.00979724 0)
(-0.00962085 -0.0186657 0)
(0.00697288 -0.0538056 0)
(0.000376786 -0.0200885 0)
(0.00274586 0.00065685 0)
(-0.000552342 0.014077 0)
(0.00339148 0.0104702 0)
(0.00543807 0.0106472 0)
(0.00469548 0.00919256 0)
(0.00616789 0.00918037 0)
(0.00893098 0.00762239 0)
(0.00601854 0.00652148 0)
(0.0126549 0.00600203 0)
(0.00450645 0.00447147 0)
(0.0151366 0.00794806 0)
(0.00125581 -0.000381452 0)
(0.0170621 0.0096857 0)
(-0.00149065 -0.0039307 0)
(0.0122557 0.00306083 0)
(-0.00187928 0.00932036 0)
(0.00774206 0.0104174 0)
(-0.00622795 0.000830573 0)
(0.00960595 -0.0500907 0)
(-0.00105254 -0.00899946 0)
(-0.0147715 0.0107624 0)
(-0.00750586 0.00424378 0)
(-0.00833022 -0.000897213 0)
(-0.00753661 0.00538785 0)
(-0.00502403 0.00128878 0)
(-0.00750285 0.00242764 0)
(-0.0017253 0.00271788 0)
(-0.00824695 0.00140419 0)
(-0.000308546 0.0025517 0)
(-0.00822423 0.000496014 0)
(0.000237961 0.00329405 0)
(-0.00458936 0.000945317 0)
(-0.00404781 0.00552649 0)
(0.000470786 0.00654676 0)
(-0.00549191 0.0044332 0)
(-0.00508857 -0.00715204 0)
(0.0128557 -0.00663798 0)
(-0.00660357 -0.0240693 0)
(0.00859886 -0.0530066 0)
(-0.00780989 -0.00996795 0)
(0.00383599 0.010474 0)
(0.00856113 0.0055258 0)
(0.00260004 0.00960925 0)
(0.00766966 0.00813577 0)
(0.00623787 0.00810491 0)
(0.00791815 0.00649045 0)
(0.00898286 0.00648551 0)
(0.00985234 0.00627758 0)
(0.00979124 0.00512973 0)
(0.010915 0.00613167 0)
(0.00944218 0.00487218 0)
(0.0111839 0.00370808 0)
(0.0116124 0.00735701 0)
(0.0086855 -0.00437707 0)
(0.0152717 0.0100643 0)
(0.00727818 -0.00608678 0)
(0.0121469 0.0106741 0)
(-0.00361362 0.0113454 0)
(0.0144858 -0.0462685 0)
(-0.0201654 -0.00371791 0)
(-0.0118932 -0.00285151 0)
(-0.0215428 0.00389822 0)
(-0.0123516 -0.000795202 0)
(-0.0189336 0.00238515 0)
(-0.00874535 0.000526882 0)
(-0.0172633 0.000691312 0)
(-0.00706915 0.000942366 0)
(-0.0152291 0.0011292 0)
(-0.00431421 0.000319871 0)
(-0.0154684 0.00102276 0)
(0.00145173 0.000570915 0)
(-0.0158269 -0.000694988 0)
(0.00483165 0.00667903 0)
(-0.00987888 0.000922773 0)
(-0.00232737 0.00719254 0)
(0.00314359 -0.00432946 0)
(-0.0126798 -0.000492255 0)
(0.0185713 -0.0288699 0)
(0.013543 -0.0512841 0)
(-1.77715e-05 0.0177482 0)
(0.0162114 0.0137388 0)
(0.0115478 0.00675321 0)
(0.023387 0.00698994 0)
(0.0218045 0.00517427 0)
(0.0266829 0.00522911 0)
(0.0305498 0.00453867 0)
(0.030514 0.00470417 0)
(0.0366953 0.00414409 0)
(0.0355875 0.00398488 0)
(0.0400482 0.00399128 0)
(0.0417468 0.00254471 0)
(0.042217 0.00420486 0)
(0.0460913 0.000431711 0)
(0.0465159 0.00316129 0)
(0.0495355 -0.000370278 0)
(0.0509526 0.00169548 0)
(0.050792 7.4878e-05 0)
(0.043932 -0.00498458 0)
(0.025434 -0.00127346 0)
)
;

boundaryField
{
    movingWall
    {
        type            fixedValue;
        value           uniform (1 0 0);
    }
    fixedWalls
    {
        type            noSlip;
    }
    frontAndBack
    {
        type            empty;
    }
}


// ************************************************************************* //
