/*--------------------------------*- C++ -*----------------------------------*\
| =========                 |                                                 |
| \\      /  F ield         | OpenFOAM: The Open Source CFD Toolbox           |
|  \\    /   O peration     | Version:  5.x                                   |
|   \\  /    A nd           | Web:      www.OpenFOAM.org                      |
|    \\/     M anipulation  |                                                 |
\*---------------------------------------------------------------------------*/
FoamFile
{
    version     2.0;
    format      ascii;
    class       surfaceScalarField;
    location    "18.3";
    object      phi;
}
// * * * * * * * * * * * * * * * * * * * * * * * * * * * * * * * * * * * * * //

dimensions      [0 3 -1 0 0 0 0];

internalField   nonuniform List<scalar> 
760
(
-1.41556e-06
1.41556e-06
-2.33622e-06
9.20656e-07
-2.7605e-06
4.24281e-07
-2.96487e-06
2.04372e-07
-3.01977e-06
5.48983e-08
-3.05761e-06
3.78377e-08
-3.04363e-06
-1.39809e-08
-3.06526e-06
2.16322e-08
-3.0401e-06
-2.51542e-08
-3.0694e-06
2.92955e-08
-3.05065e-06
-1.87478e-08
-3.07645e-06
2.58008e-08
-3.06467e-06
-1.17783e-08
-3.09515e-06
3.04752e-08
-3.06966e-06
-2.54861e-08
-3.01648e-06
-5.31796e-08
-2.83871e-06
-1.77776e-07
-2.36774e-06
-4.70967e-07
-1.53552e-06
-8.32224e-07
-1.53552e-06
-7.76366e-07
2.19193e-06
-1.2186e-06
1.36289e-06
-1.37554e-06
5.81218e-07
-1.42739e-06
2.56224e-07
-1.44619e-06
7.3695e-08
-1.45613e-06
4.77843e-08
-1.47041e-06
3.00153e-10
-1.49003e-06
4.12512e-08
-1.50482e-06
-1.03689e-08
-1.48262e-06
7.10165e-09
-1.45647e-06
-4.49056e-08
-1.41716e-06
-1.35023e-08
-1.44039e-06
1.14441e-08
-1.45726e-06
4.73463e-08
-1.5247e-06
4.19538e-08
-1.51076e-06
-6.71153e-08
-1.48068e-06
-2.07861e-07
-1.54083e-06
-4.10818e-07
-1.12772e-06
-1.24533e-06
-2.66324e-06
-3.63674e-07
2.5556e-06
-5.58095e-07
1.55731e-06
-5.61595e-07
5.84719e-07
-5.77489e-07
2.72118e-07
-5.90538e-07
8.67434e-08
-6.06411e-07
6.36578e-08
-6.66577e-07
6.04665e-08
-7.07927e-07
8.26005e-08
-7.66448e-07
4.81527e-08
-7.74881e-07
1.55347e-08
-7.77419e-07
-4.23684e-08
-7.62972e-07
-2.79493e-08
-7.83636e-07
3.21082e-08
-7.86906e-07
5.06165e-08
-7.14739e-07
-3.02133e-08
-6.08922e-07
-1.72933e-07
-3.59512e-07
-4.57271e-07
-2.758e-07
-4.9453e-07
-3.77323e-07
-1.1438e-06
-3.04056e-06
-2.0528e-07
2.76088e-06
-2.54524e-07
1.60656e-06
-2.1926e-07
5.49454e-07
-1.99618e-07
2.52476e-07
-2.19477e-07
1.06602e-07
-2.44538e-07
8.8719e-08
-2.90865e-07
1.06794e-07
-3.14247e-07
1.05982e-07
-3.42057e-07
7.59628e-08
-3.54947e-07
2.84246e-08
-3.94025e-07
-3.28957e-09
-4.53073e-07
3.10984e-08
-4.49664e-07
2.86986e-08
-5.15452e-07
1.16405e-07
-6.54145e-07
1.0848e-07
-6.69866e-07
-1.57212e-07
-6.22101e-07
-5.05037e-07
-3.38535e-07
-7.78095e-07
-2.36889e-07
-1.24545e-06
-3.27745e-06
-6.42538e-08
2.82514e-06
-1.00286e-07
1.64259e-06
-7.19385e-08
5.21107e-07
-2.94757e-08
2.10013e-07
-4.56406e-08
1.22767e-07
-8.20711e-08
1.25149e-07
-1.07231e-07
1.31954e-07
-1.27043e-07
1.25793e-07
-1.67083e-07
1.16003e-07
-2.06034e-07
6.73754e-08
-2.24715e-07
1.53923e-08
-1.90295e-07
-3.32206e-09
-1.07861e-07
-5.3735e-08
-1.58369e-07
1.66912e-07
-1.40627e-07
9.07383e-08
-1.4358e-07
-1.54259e-07
-1.59441e-07
-4.89176e-07
-1.04592e-08
-9.27077e-07
-2.40098e-08
-1.2319e-06
-3.30146e-06
-5.90983e-08
2.88423e-06
-8.82546e-08
1.67174e-06
-6.04944e-08
4.93347e-07
-1.82326e-08
1.67751e-07
-6.11284e-08
1.65663e-07
-6.18673e-08
1.25888e-07
-7.3435e-08
1.43522e-07
-9.93026e-08
1.51661e-07
-9.4256e-08
1.10956e-07
-1.14099e-07
8.72189e-08
-2.49612e-07
1.50905e-07
-2.98645e-07
4.57109e-08
-8.41562e-08
-2.68224e-07
-2.15979e-08
1.04354e-07
9.96085e-08
-3.04682e-08
1.37702e-07
-1.92352e-07
-1.31997e-07
-2.19477e-07
-1.02014e-07
-9.5706e-07
-5.80056e-08
-1.27591e-06
-3.35947e-06
-2.15552e-08
2.90579e-06
-2.94174e-08
1.67961e-06
-4.89851e-08
5.12915e-07
-5.05977e-08
1.69364e-07
-1.90522e-08
1.34117e-07
-1.10122e-08
1.17848e-07
-1.06701e-08
1.4318e-07
-4.14864e-08
1.82477e-07
-9.7096e-08
1.66566e-07
-8.56571e-08
7.578e-08
-6.54866e-08
1.30735e-07
-2.54126e-08
5.6369e-09
6.0264e-08
-3.53901e-07
-2.89603e-08
1.93579e-07
1.01646e-07
-1.61075e-07
2.0289e-07
-2.93596e-07
1.29298e-07
-1.45886e-07
2.07189e-07
-1.03495e-06
1.98832e-08
-1.0886e-06
-3.33959e-06
-4.51348e-09
2.9103e-06
-1.25916e-08
1.68768e-06
-2.61792e-09
5.02941e-07
2.89278e-08
1.37818e-07
1.24866e-08
1.50559e-07
-1.78433e-08
1.48178e-07
-1.07937e-07
2.33273e-07
-1.63038e-07
2.37578e-07
-2.05653e-07
2.09181e-07
-2.96295e-07
1.66422e-07
-2.40172e-07
7.46122e-08
-3.40087e-08
-2.00527e-07
-5.24437e-08
-3.35466e-07
-2.91523e-07
4.32658e-07
-1.35911e-07
-3.16687e-07
-4.45851e-09
-4.25048e-07
6.85115e-08
-2.18856e-07
7.64622e-08
-1.0429e-06
-3.35633e-08
-9.78575e-07
-3.37315e-06
-8.86954e-09
2.91917e-06
-2.95862e-10
1.67911e-06
-1.09982e-08
5.13643e-07
-4.52049e-08
1.72025e-07
-7.39667e-09
1.1275e-07
6.81139e-08
7.26677e-08
1.0152e-07
1.99867e-07
1.89277e-07
1.49821e-07
3.79697e-07
1.87602e-08
2.92008e-07
2.54112e-07
6.90573e-08
2.97563e-07
-6.92114e-08
-6.2258e-08
-2.09284e-07
-1.95393e-07
-3.19636e-07
5.4301e-07
-1.79613e-09
-6.34527e-07
1.91733e-07
-6.18577e-07
-1.10047e-08
-1.61177e-08
2.41784e-08
-1.07808e-06
3.29254e-08
-9.87322e-07
-3.34022e-06
6.19348e-09
2.91298e-06
1.64719e-08
1.66883e-06
5.79361e-09
5.24322e-07
5.28047e-08
1.25014e-07
8.32318e-08
8.23232e-08
9.9475e-08
5.64245e-08
1.78428e-07
1.20915e-07
1.68801e-07
1.59448e-07
7.43412e-08
1.1322e-07
-1.02325e-07
4.30779e-07
-1.6716e-07
3.62397e-07
-1.71739e-07
-5.76783e-08
-2.5279e-07
-1.14343e-07
-4.18709e-07
7.08929e-07
-3.61696e-07
-6.91539e-07
-3.01293e-07
-6.78981e-07
-2.6918e-07
-4.82307e-08
-2.57627e-07
-1.08964e-06
-3.95363e-08
-1.20541e-06
-3.37976e-06
-5.79874e-09
2.91878e-06
3.63149e-08
1.62672e-06
9.37195e-08
4.66917e-07
1.66677e-07
5.20558e-08
1.82842e-07
6.61588e-08
2.47036e-07
-7.77012e-09
3.13726e-07
5.42256e-08
1.02316e-07
3.70857e-07
-1.46011e-07
3.61547e-07
-2.21129e-07
5.05896e-07
-1.67236e-07
3.08504e-07
-1.09823e-07
-1.15091e-07
5.14027e-09
-2.29307e-07
3.58869e-08
6.78182e-07
-1.09085e-07
-5.46567e-07
-1.92414e-07
-5.95652e-07
-6.06086e-10
-2.40038e-07
-2.43156e-08
-1.06593e-06
-3.79239e-08
-1.1918e-06
-3.41768e-06
4.55891e-08
2.87319e-06
2.35893e-08
1.64872e-06
1.16972e-07
3.73534e-07
1.33088e-07
3.59402e-08
1.96803e-08
1.79566e-07
6.84856e-08
-5.65755e-08
2.3953e-07
-1.16819e-07
2.44577e-07
3.6581e-07
1.31289e-07
4.74835e-07
5.58601e-08
5.81326e-07
4.13347e-09
3.60231e-07
-1.59076e-07
4.8118e-08
-2.45838e-07
-1.42545e-07
2.60395e-08
4.06305e-07
6.48282e-08
-5.85355e-07
-1.16532e-07
-4.14292e-07
3.49007e-07
-7.05578e-07
3.44266e-07
-1.06119e-06
3.57401e-08
-8.83278e-07
-3.38194e-06
4.42882e-09
2.86876e-06
7.1866e-08
1.58128e-06
-6.48463e-09
4.51885e-07
-1.40318e-07
1.69774e-07
-1.04532e-07
1.43781e-07
-1.18597e-07
-4.25107e-08
-1.10994e-07
-1.24422e-07
9.23558e-08
1.6246e-07
2.56035e-07
3.11156e-07
2.38681e-07
5.9868e-07
1.11304e-07
4.87608e-07
1.27572e-08
1.46665e-07
-1.94039e-07
6.4251e-08
1.62346e-08
1.96032e-07
2.41513e-07
-8.10633e-07
1.61111e-07
-3.33891e-07
2.06411e-07
-7.50877e-07
2.35277e-08
-8.78303e-07
3.39464e-08
-8.93697e-07
-3.348e-06
1.1453e-07
2.75423e-06
1.18473e-07
1.57734e-06
1.07577e-07
4.6278e-07
5.38314e-08
2.23519e-07
3.29085e-09
1.94321e-07
-8.05404e-08
4.13206e-08
-9.42103e-08
-1.10752e-07
6.67438e-08
1.50567e-09
1.43712e-07
2.34188e-07
3.72739e-07
3.69653e-07
3.47286e-07
5.1306e-07
1.63453e-07
3.30498e-07
6.53681e-08
1.62336e-07
2.39082e-07
2.23181e-08
2.11049e-07
-7.826e-07
3.05975e-07
-4.28817e-07
2.49581e-07
-6.94483e-07
-8.03284e-08
-5.48394e-07
1.81482e-08
-9.92173e-07
-3.32985e-06
9.95128e-08
2.65472e-06
1.81615e-07
1.49524e-06
1.00536e-07
5.43859e-07
3.05607e-07
1.84475e-08
3.28276e-07
1.71652e-07
3.68851e-07
7.4599e-10
6.18259e-07
-3.6016e-07
3.4902e-07
2.70745e-07
4.9401e-07
8.9198e-08
7.49726e-07
1.13936e-07
8.4099e-07
4.21796e-07
8.35551e-07
3.35938e-07
8.81651e-07
1.16235e-07
9.54642e-07
-5.06724e-08
9.60025e-07
-7.87983e-07
9.56633e-07
-4.25425e-07
3.78734e-07
-1.16584e-07
2.39886e-08
-1.93649e-07
-2.60946e-09
-9.65575e-07
-3.33246e-06
1.97184e-07
2.45753e-06
3.63647e-07
1.32877e-06
3.69392e-07
5.38114e-07
2.34842e-07
1.52997e-07
3.8881e-07
1.76844e-08
5.66978e-07
-1.77422e-07
5.10704e-07
-3.03886e-07
5.54195e-07
2.27254e-07
7.02805e-07
-5.94112e-08
8.81102e-07
-6.43614e-08
9.23558e-07
3.79341e-07
1.02367e-06
2.35829e-07
1.08034e-06
5.95571e-08
9.34129e-07
9.55421e-08
6.08712e-07
-4.62566e-07
8.46557e-09
1.74821e-07
-1.20779e-07
1.26598e-08
3.34875e-07
-6.49302e-07
1.86449e-07
-8.17149e-07
-3.14601e-06
2.71903e-07
2.18563e-06
3.14959e-07
1.28572e-06
4.22948e-07
4.30125e-07
3.95833e-07
1.80113e-07
3.24808e-07
8.87089e-08
4.15211e-07
-2.67824e-07
3.57176e-07
-2.45851e-07
9.1906e-07
-3.3463e-07
1.17794e-06
-3.18293e-07
1.15876e-06
-4.51743e-08
1.07973e-06
4.58367e-07
1.00774e-06
3.07821e-07
1.02533e-06
4.19672e-08
7.36891e-07
3.83978e-07
3.36107e-07
-6.17822e-08
4.07677e-08
4.70161e-07
5.45735e-07
-4.92307e-07
2.41961e-07
-3.45529e-07
-7.04003e-09
-5.68148e-07
-3.15305e-06
4.31242e-07
1.75439e-06
7.39772e-07
9.77188e-07
6.98627e-07
4.71269e-07
7.53143e-07
1.25597e-07
7.75178e-07
6.6674e-08
8.13269e-07
-3.05915e-07
9.14517e-07
-3.471e-07
9.90984e-07
-4.11097e-07
9.56606e-07
-2.83915e-07
9.19833e-07
-8.4011e-09
1.07172e-06
3.06484e-07
1.1154e-06
2.64141e-07
1.15845e-06
-1.09055e-09
1.10523e-06
4.372e-07
1.22397e-06
-1.80523e-07
1.06071e-06
6.33419e-07
8.48692e-07
-2.80286e-07
2.20115e-07
2.83049e-07
3.73941e-07
-7.21973e-07
-2.77911e-06
5.81213e-07
1.17317e-06
8.85771e-07
6.7263e-07
9.84374e-07
3.72666e-07
9.23944e-07
1.86026e-07
8.08421e-07
1.82198e-07
4.12863e-07
8.96431e-08
-8.1321e-08
1.47084e-07
-6.64602e-07
1.72184e-07
-1.03775e-06
8.92343e-08
-1.06326e-06
1.71065e-08
-8.10054e-07
5.32785e-08
-5.80242e-07
3.43297e-08
-5.94986e-07
1.36532e-08
-2.84725e-07
1.26939e-07
-3.46001e-07
-1.19247e-07
7.22669e-08
2.15152e-07
-5.62602e-08
-1.51759e-07
3.05374e-07
-7.85859e-08
7.83912e-07
-1.20051e-06
-1.9952e-06
1.17317e-06
1.84581e-06
2.21847e-06
2.4045e-06
2.5867e-06
2.67634e-06
2.82342e-06
2.99561e-06
3.08484e-06
3.10195e-06
3.15523e-06
3.18956e-06
3.20321e-06
3.33015e-06
3.2109e-06
3.42605e-06
3.27429e-06
3.19571e-06
1.9952e-06
)
;

boundaryField
{
    movingWall
    {
        type            calculated;
        value           uniform 0;
    }
    fixedWalls
    {
        type            calculated;
        value           uniform 0;
    }
    frontAndBack
    {
        type            empty;
        value           nonuniform 0();
    }
}


// ************************************************************************* //
