/*--------------------------------*- C++ -*----------------------------------*\
| =========                 |                                                 |
| \\      /  F ield         | OpenFOAM: The Open Source CFD Toolbox           |
|  \\    /   O peration     | Version:  5.x                                   |
|   \\  /    A nd           | Web:      www.OpenFOAM.org                      |
|    \\/     M anipulation  |                                                 |
\*---------------------------------------------------------------------------*/
FoamFile
{
    version     2.0;
    format      ascii;
    class       volScalarField;
    location    "10.4";
    object      p;
}
// * * * * * * * * * * * * * * * * * * * * * * * * * * * * * * * * * * * * * //

dimensions      [0 2 -2 0 0 0 0];

internalField   nonuniform List<scalar> 
400
(
1.16485e-08
-0.000472736
-0.000800015
-0.00100124
-0.0011065
-0.00116032
-0.00120005
-0.00120965
-0.00121476
-0.00120587
-0.00120743
-0.00121545
-0.00118821
-0.00116954
-0.00119705
-0.00112576
-0.00100018
-0.000801843
-0.000572359
0.000304936
-0.000597674
-0.000839937
-0.00100036
-0.00110422
-0.00115068
-0.00116911
-0.00120513
-0.00122833
-0.00121803
-0.00121087
-0.00121962
-0.0012179
-0.00119639
-0.00116933
-0.00120049
-0.00115916
-0.00117251
-0.00113959
-0.0010313
-0.000404926
-0.000779922
-0.00095791
-0.00104959
-0.00110784
-0.00114724
-0.00118047
-0.00120396
-0.00121183
-0.00121897
-0.00120681
-0.00122018
-0.00120307
-0.00121336
-0.00118728
-0.00120779
-0.00117999
-0.0011788
-0.00115032
-0.0010877
-0.000816307
-0.000917981
-0.00100814
-0.00106116
-0.00111423
-0.00115622
-0.00118792
-0.00120825
-0.00121622
-0.0012234
-0.0012141
-0.00121818
-0.00120548
-0.00120551
-0.00118316
-0.00119432
-0.00117128
-0.00118135
-0.00117432
-0.00120248
-0.00106525
-0.00100221
-0.00103955
-0.00107661
-0.00113075
-0.0011729
-0.00120291
-0.00122079
-0.00122261
-0.00122992
-0.00121624
-0.00122396
-0.00120478
-0.00121692
-0.00119306
-0.00121465
-0.00119771
-0.00121359
-0.00119995
-0.00120028
-0.00112137
-0.00107479
-0.00109129
-0.00112994
-0.00118469
-0.0012223
-0.00124344
-0.00125259
-0.00124421
-0.00124396
-0.00122675
-0.00122469
-0.00120703
-0.00120672
-0.00118921
-0.00119303
-0.00117611
-0.00119207
-0.00116024
-0.00118506
-0.00115809
-0.00116908
-0.00119954
-0.00123727
-0.00129398
-0.00130912
-0.0013048
-0.0012962
-0.00127327
-0.00126217
-0.00123882
-0.0012351
-0.00121365
-0.00122035
-0.00119852
-0.00121571
-0.00119398
-0.00121509
-0.00119304
-0.00122652
-0.00116809
-0.00130135
-0.00134893
-0.00141679
-0.00146664
-0.00146331
-0.00141163
-0.00136193
-0.00131167
-0.00128162
-0.00124784
-0.00123354
-0.0012106
-0.00120881
-0.00118802
-0.00119517
-0.00117393
-0.00119196
-0.001158
-0.00117894
-0.00116872
-0.00144001
-0.00152101
-0.00165946
-0.00172201
-0.00168857
-0.00156927
-0.00144607
-0.0013571
-0.00130695
-0.00126436
-0.00124439
-0.00121797
-0.0012227
-0.001193
-0.00121005
-0.00118144
-0.00120896
-0.00118056
-0.00122467
-0.00117157
-0.00157337
-0.00170128
-0.00188153
-0.00198672
-0.0019142
-0.00172687
-0.0015242
-0.00137933
-0.00131301
-0.00125448
-0.00123328
-0.00120315
-0.00120505
-0.00117427
-0.00119274
-0.00116572
-0.00118971
-0.001148
-0.0011765
-0.00116123
-0.00152478
-0.00171077
-0.00193298
-0.00207493
-0.00204962
-0.00184144
-0.00159036
-0.00140466
-0.00132483
-0.00126352
-0.00123614
-0.00120708
-0.00121209
-0.00118092
-0.00119381
-0.00116297
-0.00120152
-0.00115747
-0.00121437
-0.00115646
-0.00131423
-0.0015744
-0.0018616
-0.00208195
-0.0020859
-0.00184263
-0.00157557
-0.00137055
-0.00130089
-0.00124479
-0.00121478
-0.00118297
-0.00118167
-0.00115368
-0.00117356
-0.00114458
-0.00118679
-0.00113498
-0.00116669
-0.00112262
-0.000915709
-0.00126742
-0.00160075
-0.00182894
-0.00184308
-0.00168235
-0.00139827
-0.00121199
-0.00117859
-0.00120875
-0.00117888
-0.00118542
-0.00119084
-0.0011707
-0.00119094
-0.00112701
-0.00117763
-0.00113833
-0.00117406
-0.00112232
-0.000654634
-0.00104503
-0.00127713
-0.00135926
-0.00135587
-0.00132489
-0.00126493
-0.00122458
-0.00119584
-0.00117101
-0.0011503
-0.00115288
-0.00114767
-0.00112434
-0.00110358
-0.00112439
-0.00116557
-0.00107734
-0.00116658
-0.00113344
-0.000749389
-0.00106446
-0.00114404
-0.00114787
-0.00114696
-0.00116191
-0.0011916
-0.00115989
-0.00116015
-0.00114482
-0.00115833
-0.00120547
-0.00113105
-0.0012303
-0.00113982
-0.00119327
-0.00122669
-0.0011687
-0.00128073
-0.00116787
-0.00106446
-0.00117283
-0.00113723
-0.00105239
-0.00106016
-0.00108046
-0.0011331
-0.00112942
-0.00113734
-0.00111874
-0.00111719
-0.00111212
-0.00110494
-0.00112351
-0.00110314
-0.00108951
-0.0011173
-0.00116565
-0.00116323
-0.00111551
-0.00103138
-0.00119078
-0.00113925
-0.00102779
-0.0010144
-0.0010349
-0.00107414
-0.00107756
-0.0011196
-0.00109958
-0.00114348
-0.00114517
-0.0011251
-0.00118877
-0.00111588
-0.00121505
-0.00133638
-0.00113026
-0.00125359
-0.00100573
-0.000991618
-0.00114985
-0.00105578
-0.00104046
-0.00103709
-0.00105689
-0.00107735
-0.00109257
-0.0011058
-0.00110873
-0.00112419
-0.00109088
-0.00111767
-0.00112275
-0.00112037
-0.00126585
-0.00118666
-0.000947325
-0.00100207
-0.000782653
-0.000954
-0.00107867
-0.00106319
-0.00105407
-0.00102206
-0.00101784
-0.00105764
-0.00107064
-0.00109485
-0.00110177
-0.00113341
-0.00110944
-0.00116859
-0.00110728
-0.00118091
-0.00118698
-0.00109133
-0.00129149
-0.00100077
-0.00056488
-0.00109883
-0.00105093
-0.000966365
-0.0010446
-0.00102605
-0.00104014
-0.00105462
-0.00107372
-0.00108713
-0.00109752
-0.00109861
-0.00109367
-0.00109033
-0.001079
-0.00112626
-0.00114743
-0.00109167
-0.000859295
-0.000399931
0.00093986
)
;

boundaryField
{
    movingWall
    {
        type            zeroGradient;
    }
    fixedWalls
    {
        type            zeroGradient;
    }
    frontAndBack
    {
        type            empty;
    }
}


// ************************************************************************* //
