/*--------------------------------*- C++ -*----------------------------------*\
| =========                 |                                                 |
| \\      /  F ield         | OpenFOAM: The Open Source CFD Toolbox           |
|  \\    /   O peration     | Version:  5.x                                   |
|   \\  /    A nd           | Web:      www.OpenFOAM.org                      |
|    \\/     M anipulation  |                                                 |
\*---------------------------------------------------------------------------*/
FoamFile
{
    version     2.0;
    format      ascii;
    class       surfaceScalarField;
    location    "18.7";
    object      phi;
}
// * * * * * * * * * * * * * * * * * * * * * * * * * * * * * * * * * * * * * //

dimensions      [0 3 -1 0 0 0 0];

internalField   nonuniform List<scalar> 
760
(
-1.3559e-06
1.3559e-06
-2.24893e-06
8.93031e-07
-2.67409e-06
4.25159e-07
-2.8894e-06
2.15312e-07
-2.96859e-06
7.91942e-08
-3.02048e-06
5.18834e-08
-3.03572e-06
1.52385e-08
-3.06354e-06
2.78219e-08
-3.07666e-06
1.31225e-08
-3.12203e-06
4.5366e-08
-3.12749e-06
5.45834e-09
-3.15755e-06
3.00646e-08
-3.14332e-06
-1.42297e-08
-3.14522e-06
1.90202e-09
-3.09201e-06
-5.32078e-08
-3.00078e-06
-9.12355e-08
-2.79547e-06
-2.0531e-07
-2.36631e-06
-4.29154e-07
-1.63199e-06
-7.34327e-07
-1.63199e-06
-7.93234e-07
2.14913e-06
-1.24966e-06
1.34946e-06
-1.3883e-06
5.63799e-07
-1.43801e-06
2.65021e-07
-1.45486e-06
9.60446e-08
-1.47249e-06
6.9516e-08
-1.47783e-06
2.05785e-08
-1.49793e-06
4.79165e-08
-1.48079e-06
-4.01704e-09
-1.4622e-06
2.67778e-08
-1.45952e-06
2.77421e-09
-1.47845e-06
4.90012e-08
-1.52753e-06
3.48451e-08
-1.54761e-06
2.19836e-08
-1.59601e-06
-4.80629e-09
-1.53205e-06
-1.55192e-07
-1.50439e-06
-2.32973e-07
-1.4699e-06
-4.63647e-07
-1.02448e-06
-1.17975e-06
-2.65647e-06
-4.10461e-07
2.55959e-06
-5.9392e-07
1.53292e-06
-6.02554e-07
5.72433e-07
-6.19849e-07
2.82316e-07
-6.36959e-07
1.13155e-07
-6.63408e-07
9.59644e-08
-7.33044e-07
9.02146e-08
-7.70373e-07
8.52462e-08
-8.08857e-07
3.44663e-08
-7.80954e-07
-1.12479e-09
-7.65452e-07
-1.27281e-08
-7.62521e-07
4.60704e-08
-7.96236e-07
6.85599e-08
-7.79292e-07
5.03922e-09
-7.01891e-07
-8.22069e-08
-6.10711e-07
-2.46372e-07
-3.76327e-07
-4.67357e-07
-2.81396e-07
-5.58578e-07
-3.75793e-07
-1.08535e-06
-3.03226e-06
-2.07811e-07
2.7674e-06
-2.6858e-07
1.59369e-06
-2.46674e-07
5.50527e-07
-2.40582e-07
2.76225e-07
-2.55026e-07
1.27599e-07
-2.74547e-07
1.15485e-07
-3.12422e-07
1.2809e-07
-3.32845e-07
1.0567e-07
-3.62255e-07
6.38763e-08
-3.86139e-07
2.27588e-08
-4.3242e-07
3.35534e-08
-4.67164e-07
8.08144e-08
-4.70234e-07
7.16294e-08
-5.27907e-07
6.27124e-08
-6.50233e-07
4.01189e-08
-6.63689e-07
-2.32916e-07
-5.94669e-07
-5.36377e-07
-2.75799e-07
-8.77448e-07
-2.21262e-07
-1.13989e-06
-3.25352e-06
-9.77875e-08
2.86519e-06
-1.05716e-07
1.60162e-06
-8.20107e-08
5.26822e-07
-4.70685e-08
2.41283e-07
-5.79266e-08
1.38457e-07
-8.69196e-08
1.44478e-07
-1.0727e-07
1.4844e-07
-1.31135e-07
1.29535e-07
-1.85725e-07
1.18467e-07
-2.26038e-07
6.30717e-08
-2.21745e-07
2.92603e-08
-1.4516e-07
4.22881e-09
-3.53496e-08
-3.81806e-08
-7.34327e-08
1.00796e-07
-4.50534e-08
1.17396e-08
-8.23763e-08
-1.95593e-07
-1.05697e-07
-5.13056e-07
-1.48186e-09
-9.81663e-07
-9.4426e-09
-1.13192e-06
-3.26297e-06
-4.56328e-08
2.91082e-06
-8.19373e-08
1.63792e-06
-4.34017e-08
4.88286e-07
3.59978e-10
1.97521e-07
-5.2223e-08
1.9104e-07
-5.13478e-08
1.43602e-07
-6.29747e-08
1.60067e-07
-8.74119e-08
1.53972e-07
-8.38485e-08
1.14904e-07
-1.24201e-07
1.03424e-07
-2.69114e-07
1.74174e-07
-2.84169e-07
1.92836e-08
-5.65331e-08
-2.65817e-07
-1.77368e-08
6.19993e-08
1.66969e-07
-1.72966e-07
2.43275e-07
-2.71899e-07
8.93984e-09
-2.78721e-07
-2.45407e-08
-9.48183e-07
-8.74603e-08
-1.069e-06
-3.35043e-06
-2.98495e-08
2.94067e-06
-3.58136e-08
1.64388e-06
-6.2132e-08
5.14604e-07
-5.7468e-08
1.92857e-07
-2.45442e-08
1.58116e-07
-4.67993e-09
1.23738e-07
1.28357e-08
1.42551e-07
-1.38447e-08
1.80652e-07
-6.50596e-08
1.66118e-07
-6.55297e-08
1.03894e-07
-5.48574e-08
1.63501e-07
-4.52722e-08
9.69842e-09
1.01614e-08
-3.2125e-07
-5.55774e-08
1.27738e-07
1.22915e-07
-3.51459e-07
1.83354e-07
-3.32338e-07
1.0834e-07
-2.03707e-07
1.90917e-07
-1.03076e-06
4.86927e-08
-9.2678e-07
-3.30173e-06
8.48584e-09
2.93219e-06
-3.5723e-08
1.68809e-06
-2.56238e-08
5.04505e-07
1.45098e-08
1.52724e-07
2.30404e-09
1.70322e-07
-2.57013e-08
1.51744e-07
-1.11989e-07
2.28838e-07
-1.79824e-07
2.48487e-07
-2.49297e-07
2.35591e-07
-3.01963e-07
1.56561e-07
-1.74128e-07
3.56659e-08
-2.64004e-08
-1.38029e-07
-1.40649e-07
-2.07002e-07
-4.12131e-07
3.9922e-07
-1.57084e-07
-6.06506e-07
-6.19953e-08
-4.27427e-07
-1.66817e-07
-9.88854e-08
-1.41005e-07
-1.05657e-06
-6.63544e-08
-1.00143e-06
-3.36809e-06
-1.19891e-08
2.94418e-06
-1.40118e-08
1.69011e-06
-3.3154e-08
5.23647e-07
-6.27769e-08
1.82347e-07
-2.58093e-08
1.33354e-07
5.23247e-08
7.36096e-08
7.56583e-08
2.05505e-07
1.30514e-07
1.93631e-07
3.52496e-07
1.36097e-08
3.28909e-07
1.80148e-07
1.30384e-07
2.34191e-07
-5.87553e-08
5.11105e-08
-2.13691e-07
-5.20663e-08
-2.86825e-07
4.72354e-07
-6.55948e-08
-8.27737e-07
4.87335e-08
-5.41755e-07
-2.15907e-07
1.65755e-07
-1.57574e-07
-1.1149e-06
1.72106e-08
-1.17622e-06
-3.35088e-06
2.63937e-08
2.91778e-06
-1.16962e-08
1.72821e-06
-4.05731e-08
5.52524e-07
3.15754e-11
1.41742e-07
5.08062e-08
8.25795e-08
7.86584e-08
4.57574e-08
1.68496e-07
1.15668e-07
2.13913e-07
1.48214e-07
1.94085e-07
3.34371e-08
2.32421e-08
3.50991e-07
-1.16825e-07
3.74258e-07
-1.06825e-07
4.11108e-08
-1.54234e-07
-4.65701e-09
-2.48702e-07
5.66822e-07
-4.5292e-07
-6.23519e-07
-3.93342e-07
-6.01333e-07
-8.24239e-08
-1.45163e-07
-1.22282e-07
-1.07505e-06
-8.60087e-08
-1.21249e-06
-3.43689e-06
-1.14394e-08
2.92922e-06
3.64307e-08
1.68034e-06
6.2566e-08
5.26389e-07
1.1501e-07
8.92984e-08
1.34677e-07
6.29126e-08
1.9595e-07
-1.55163e-08
3.09899e-07
1.71872e-09
1.64405e-07
2.93707e-07
-6.03508e-08
2.58193e-07
-1.29747e-07
4.20387e-07
-8.21152e-08
3.26626e-07
5.33453e-08
-9.43497e-08
1.66433e-07
-1.17745e-07
3.22182e-08
7.01037e-07
-9.41221e-08
-4.97179e-07
-1.42051e-07
-5.53404e-07
2.49065e-07
-5.36279e-07
2.98704e-07
-1.12469e-06
4.98813e-08
-9.63666e-07
-3.387e-06
3.43951e-08
2.89483e-06
-2.92523e-08
1.74398e-06
8.02687e-08
4.16868e-07
1.36214e-07
3.33534e-08
3.62906e-08
1.62836e-07
7.03106e-08
-4.95363e-08
2.53245e-07
-1.81216e-07
2.64684e-07
2.82268e-07
1.22792e-07
4.00085e-07
4.99539e-08
4.93226e-07
3.7404e-08
3.39176e-07
-8.85001e-08
3.15544e-08
-1.52692e-07
-5.35526e-08
3.60442e-08
5.12301e-07
7.89362e-08
-5.40071e-07
-7.11114e-08
-4.03357e-07
1.83595e-07
-7.90985e-07
1.23002e-07
-1.06409e-06
5.37117e-08
-8.94375e-07
-3.33329e-06
-1.86056e-08
2.91343e-06
3.26404e-08
1.69274e-06
-4.03017e-08
4.8981e-07
-1.67966e-07
1.61018e-07
-1.1602e-07
1.1089e-07
-1.21692e-07
-4.38643e-08
-9.34854e-08
-2.09423e-07
1.27418e-07
6.13644e-08
2.94134e-07
2.3337e-07
2.70739e-07
5.16621e-07
1.31215e-07
4.787e-07
2.88243e-08
1.33945e-07
-1.42198e-07
1.1747e-07
-3.88622e-09
3.73989e-07
1.30706e-07
-6.74664e-07
1.25255e-07
-3.97905e-07
5.21683e-09
-6.70947e-07
-2.3457e-07
-8.24306e-07
-1.10248e-08
-1.11792e-06
-3.34432e-06
2.74644e-08
2.88597e-06
1.60402e-08
1.70416e-06
1.22138e-08
4.93637e-07
-2.56617e-08
1.98893e-07
-1.74112e-08
1.02639e-07
-1.07243e-07
4.59679e-08
-1.02379e-07
-2.14287e-07
1.37481e-07
-1.78495e-07
1.98012e-07
1.72839e-07
3.65046e-07
3.49586e-07
3.61319e-07
4.82427e-07
1.71075e-07
3.2419e-07
2.56459e-08
2.62899e-07
9.28689e-08
3.06766e-07
1.35077e-07
-7.16872e-07
2.53739e-07
-5.16567e-07
3.16598e-07
-7.33806e-07
1.03136e-07
-6.10844e-07
3.46057e-08
-1.04939e-06
-3.30971e-06
5.16066e-08
2.83436e-06
9.19398e-08
1.66383e-06
-2.67879e-09
5.88255e-07
1.90717e-07
5.49746e-09
2.56633e-07
3.67232e-08
2.50341e-07
5.22601e-08
5.93529e-07
-5.57475e-07
4.67195e-07
-5.21618e-08
4.05535e-07
2.34499e-07
6.4414e-07
1.10981e-07
7.91492e-07
3.35076e-07
7.09951e-07
4.05731e-07
8.44847e-07
1.28002e-07
8.68484e-07
2.83129e-07
8.70976e-07
-7.19364e-07
9.76717e-07
-6.22308e-07
4.70994e-07
-2.28084e-07
2.37346e-07
-3.77196e-07
6.12886e-08
-8.73332e-07
-3.24842e-06
1.35745e-07
2.69862e-06
2.95007e-07
1.50457e-06
3.04555e-07
5.78707e-07
1.76568e-07
1.33484e-07
3.12094e-07
-9.88023e-08
5.59077e-07
-1.94723e-07
5.54338e-07
-5.52736e-07
5.42009e-07
-3.98335e-08
6.21332e-07
1.55176e-07
7.29948e-07
2.36479e-09
8.00579e-07
2.64445e-07
8.55173e-07
3.51137e-07
9.45065e-07
3.81104e-08
9.84647e-07
2.43546e-07
6.42447e-07
-3.77164e-07
-1.78807e-08
3.80197e-08
-1.98931e-07
-4.70336e-08
1.10443e-07
-6.8657e-07
1.02963e-07
-8.65852e-07
-3.14546e-06
2.8116e-07
2.41746e-06
2.99092e-07
1.48663e-06
3.8971e-07
4.88088e-07
4.59296e-07
6.38987e-08
3.17564e-07
4.29296e-08
4.63341e-07
-3.405e-07
3.11442e-07
-4.00836e-07
6.85254e-07
-4.13646e-07
1.18177e-06
-3.41343e-07
1.18375e-06
3.85231e-10
1.04232e-06
4.05881e-07
9.84881e-07
4.08572e-07
9.4646e-07
7.6531e-08
8.82495e-07
3.07511e-07
6.03928e-07
-9.85962e-08
1.66565e-07
4.75383e-07
5.47543e-07
-4.28012e-07
1.64677e-07
-3.03704e-07
-7.74927e-08
-6.23682e-07
-3.22295e-06
4.6178e-07
1.95568e-06
8.33632e-07
1.11478e-06
7.96551e-07
5.25169e-07
8.29201e-07
3.12492e-08
8.50958e-07
2.11724e-08
8.46725e-07
-3.36268e-07
9.21723e-07
-4.75834e-07
9.57246e-07
-4.49168e-07
9.62208e-07
-3.46305e-07
9.90016e-07
-2.74235e-08
1.08668e-06
3.09212e-07
1.08776e-06
4.07499e-07
1.17741e-06
-1.31165e-08
1.06901e-06
4.15911e-07
1.17543e-06
-2.05016e-07
1.08689e-06
5.63923e-07
9.03788e-07
-2.44914e-07
3.28845e-07
2.71239e-07
4.41526e-07
-7.36363e-07
-2.78143e-06
6.9242e-07
1.26326e-06
1.06183e-06
7.45372e-07
1.18565e-06
4.01348e-07
1.033e-06
1.83897e-07
9.12467e-07
1.41709e-07
5.07368e-07
6.88312e-08
-7.2914e-08
1.04448e-07
-6.76488e-07
1.54406e-07
-1.10169e-06
7.8894e-08
-1.13244e-06
3.33208e-09
-8.72548e-07
4.93182e-08
-5.25223e-07
6.01732e-08
-5.26724e-07
-1.16153e-08
-2.34315e-07
1.23502e-07
-3.54164e-07
-8.51673e-08
1.63875e-08
1.93371e-07
-5.74453e-08
-1.71081e-07
3.04041e-07
-9.02472e-08
8.15976e-07
-1.2483e-06
-1.96545e-06
1.26326e-06
2.00863e-06
2.40998e-06
2.59387e-06
2.73558e-06
2.80441e-06
2.90886e-06
3.06327e-06
3.14216e-06
3.14549e-06
3.19481e-06
3.25499e-06
3.24337e-06
3.36687e-06
3.28171e-06
3.47508e-06
3.304e-06
3.21375e-06
1.96545e-06
)
;

boundaryField
{
    movingWall
    {
        type            calculated;
        value           uniform 0;
    }
    fixedWalls
    {
        type            calculated;
        value           uniform 0;
    }
    frontAndBack
    {
        type            empty;
        value           nonuniform 0();
    }
}


// ************************************************************************* //
