/*--------------------------------*- C++ -*----------------------------------*\
| =========                 |                                                 |
| \\      /  F ield         | OpenFOAM: The Open Source CFD Toolbox           |
|  \\    /   O peration     | Version:  5.x                                   |
|   \\  /    A nd           | Web:      www.OpenFOAM.org                      |
|    \\/     M anipulation  |                                                 |
\*---------------------------------------------------------------------------*/
FoamFile
{
    version     2.0;
    format      ascii;
    class       volVectorField;
    location    "18.7";
    object      U;
}
// * * * * * * * * * * * * * * * * * * * * * * * * * * * * * * * * * * * * * //

dimensions      [0 1 -1 0 0 0 0];

internalField   nonuniform List<vector> 
400
(
(-0.0179657 0.010304 0)
(-0.0414797 0.00653641 0)
(-0.0490973 0.0031522 0)
(-0.0563714 0.000476948 0)
(-0.0568463 0.000621847 0)
(-0.06035 -0.000618535 0)
(-0.0591955 0.000333739 0)
(-0.0619604 -0.000539262 0)
(-0.0603425 -6.95281e-05 0)
(-0.06299 -0.000584969 0)
(-0.0607058 -0.000960735 0)
(-0.0644699 -0.00074506 0)
(-0.0618631 -0.0010688 0)
(-0.0655388 -0.00037253 0)
(-0.0615402 -0.00113105 0)
(-0.0633216 -0.00134034 0)
(-0.0573618 -0.00337043 0)
(-0.0565053 -0.00561263 0)
(-0.0425229 -0.0113799 0)
(-0.0149921 -0.0239424 0)
(-0.0133573 0.0384214 0)
(-0.0218782 0.0253079 0)
(-0.0266967 0.0117265 0)
(-0.0280122 0.00702512 0)
(-0.027867 0.00211877 0)
(-0.030306 0.00246308 0)
(-0.0275526 0.000281215 0)
(-0.0322859 0.00156728 0)
(-0.0270705 0.000553648 0)
(-0.0329351 0.00219315 0)
(-0.0248889 0.00113137 0)
(-0.0331194 0.00188452 0)
(-0.0257805 0.000479386 0)
(-0.0359677 0.000404094 0)
(-0.0270892 -0.00141019 0)
(-0.0367575 -0.00310628 0)
(-0.0252618 -0.00627405 0)
(-0.0358542 -0.0143306 0)
(-0.027324 -0.0226047 0)
(-0.00773388 -0.0481304 0)
(-0.0070581 0.0489185 0)
(-0.0115197 0.0300259 0)
(-0.0109526 0.0117101 0)
(-0.0126796 0.0041207 0)
(-0.011438 0.00178338 0)
(-0.0136727 0.000422657 0)
(-0.0126073 0.000457332 0)
(-0.0170856 0.000350742 0)
(-0.0137914 -0.000689736 0)
(-0.0187633 -0.000981629 0)
(-0.0121569 -0.000993662 0)
(-0.0181152 0.000167898 0)
(-0.0128724 0.000904464 0)
(-0.0189018 0.000554681 0)
(-0.0133937 0.00131556 0)
(-0.0130768 -0.0020793 0)
(-0.0131831 -0.00192217 0)
(-0.00047663 -0.00209591 0)
(-0.0123619 -0.0206584 0)
(-0.000200349 -0.056113 0)
(-0.00528357 0.0559281 0)
(-0.00435437 0.032626 0)
(-0.00541258 0.0119588 0)
(-0.00483858 0.00708316 0)
(-0.00430952 0.00298161 0)
(-0.00612587 0.00336726 0)
(-0.00459456 0.00329017 0)
(-0.00821759 0.00294983 0)
(-0.00518945 0.00197743 0)
(-0.00925176 0.000916678 0)
(-0.00617874 0.000411347 0)
(-0.0109019 0.00155556 0)
(-0.00802269 0.00194327 0)
(-0.00997134 -0.000276982 0)
(-0.0123236 -0.00483446 0)
(-0.012505 -0.00879702 0)
(-0.0157547 -0.0178313 0)
(-0.00588382 -0.0211316 0)
(-0.00675091 -0.02465 0)
(-0.000613239 -0.0637446 0)
(-0.00248822 0.0559398 0)
(-0.00212771 0.0324372 0)
(-0.00158772 0.010351 0)
(-0.00169517 0.00440662 0)
(-0.000141702 0.00199634 0)
(-0.00209086 0.00137563 0)
(-0.00135711 0.00179746 0)
(-0.00302523 0.00142055 0)
(-0.00235759 0.00068764 0)
(-0.00491596 6.60263e-05 0)
(-0.00418876 0.00105091 0)
(-0.00437031 0.00190214 0)
(-0.00178581 0.000833537 0)
(0.000648157 0.00245697 0)
(-0.00412996 0.00611906 0)
(0.00272512 -0.000651918 0)
(-0.00660534 -0.00294901 0)
(0.00322303 -0.0143148 0)
(-0.00344351 -0.0189879 0)
(0.00328976 -0.0631868 0)
(-0.00223315 0.0606164 0)
(6.96599e-05 0.0331065 0)
(-0.00296819 0.0115658 0)
(0.00103787 0.00541053 0)
(-0.00100636 0.00384859 0)
(-0.00123628 0.00445947 0)
(-0.000688852 0.00434429 0)
(-0.00195102 0.00365973 0)
(-0.00161222 0.00416572 0)
(-0.00158799 0.00236745 0)
(-0.00357329 2.90596e-05 0)
(-0.00699363 -0.00180518 0)
(-0.0049103 -0.00229761 0)
(0.00302657 0.00183835 0)
(-0.00394971 -0.00545102 0)
(0.0112256 -0.00653585 0)
(-0.0024894 -0.0178252 0)
(0.00308842 -0.0242478 0)
(-0.0045284 -0.0280105 0)
(0.00179137 -0.0672626 0)
(-0.00119303 0.0566701 0)
(-0.000229537 0.031773 0)
(-0.00101304 0.00725983 0)
(-0.00153282 0.00225785 0)
(-0.000733353 0.00340803 0)
(-0.000181453 0.00112589 0)
(-4.50072e-05 0.00174146 0)
(0.000627445 0.00253599 0)
(-0.00128344 0.000207941 0)
(-0.00105886 0.00193572 0)
(-0.00189525 0.00700274 0)
(8.32334e-05 0.0027575 0)
(-0.00234751 -0.00879351 0)
(0.00301362 0.001077 0)
(-0.00569982 -0.00127094 0)
(0.0109344 -0.00463989 0)
(-0.00415065 0.00666869 0)
(0.0091515 -0.0140885 0)
(-0.00252839 -0.012897 0)
(0.00495961 -0.0635843 0)
(-0.000854089 0.0613747 0)
(0.00110208 0.0346836 0)
(-0.00237383 0.0138723 0)
(0.00126476 0.00570392 0)
(-0.000615062 0.00325969 0)
(0.000684339 0.00400368 0)
(-0.0016245 0.00431679 0)
(-0.00304898 0.00460621 0)
(-0.00399044 0.00678732 0)
(-0.00582037 0.00234017 0)
(-0.00675168 -0.000507371 0)
(0.000226504 -0.00247016 0)
(-0.00137982 -0.0032527 0)
(-0.00448603 0.00336485 0)
(-0.0113123 -0.0125807 0)
(0.00447691 -0.00818793 0)
(-0.00661332 -0.0139042 0)
(0.000197556 -0.0260515 0)
(-0.00645794 -0.0248812 0)
(0.00421575 -0.068588 0)
(-0.00107923 0.0565243 0)
(0.00048535 0.0324081 0)
(-0.000931531 0.00601959 0)
(-0.000511176 0.000197384 0)
(-0.00194895 0.00319831 0)
(0.00101857 0.00188144 0)
(0.00089942 0.00438435 0)
(0.00238837 0.00552893 0)
(0.00251305 0.00211322 0)
(0.0112219 0.00343395 0)
(0.00224034 0.00174543 0)
(0.00336386 -0.00277249 0)
(-0.00601821 -0.00586538 0)
(-0.00216259 0.0132223 0)
(-0.00902686 -0.0119811 0)
(0.00636235 -0.00987356 0)
(-0.0048495 0.0091437 0)
(-0.00271907 -0.016475 0)
(-0.00432469 -0.0151712 0)
(0.00516326 -0.0663092 0)
(-0.000309676 0.0610485 0)
(0.00124027 0.0357987 0)
(-0.00163289 0.0149639 0)
(-0.000114185 0.00729747 0)
(0.000130179 0.00245464 0)
(0.00190726 0.00119504 0)
(0.00116353 0.00419582 0)
(0.00563194 0.00203049 0)
(0.00295673 -0.00144776 0)
(0.00442851 0.00438588 0)
(-0.00331054 0.00838688 0)
(-0.00197206 0.00489386 0)
(-0.00157058 0.00431265 0)
(-0.00542771 0.0061316 0)
(-0.00440494 -0.0222345 0)
(-0.0123159 -0.0112111 0)
(-0.00493235 -0.00271348 0)
(0.00233671 -0.029279 0)
(-0.00783543 -0.0329146 0)
(0.00472735 -0.069972 0)
(-0.00115619 0.056435 0)
(0.000605319 0.0328269 0)
(0.00100358 0.00669425 0)
(0.00132497 -0.00187289 0)
(0.00342689 0.000588549 0)
(0.00218397 0.000494653 0)
(0.00542363 0.000346744 0)
(0.00722399 0.00419092 0)
(-0.000531522 0.00259378 0)
(-0.00210551 0.00895502 0)
(-0.00264671 0.00569436 0)
(-0.00105981 -0.00349939 0)
(0.00360454 -0.00465941 0)
(0.00206984 0.0149112 0)
(-0.000445691 -0.00338622 0)
(-0.00280722 -0.0125663 0)
(-0.0036002 -0.00264887 0)
(0.0140862 -0.0146232 0)
(-0.00257034 -0.0145784 0)
(0.00489937 -0.0654136 0)
(-9.0288e-06 0.059772 0)
(0.00118886 0.034964 0)
(-0.00213445 0.0151816 0)
(0.00501254 0.00574331 0)
(0.000625529 0.00218364 0)
(0.00100045 -0.000995471 0)
(0.00156899 -0.000283111 0)
(0.00808702 0.00693503 0)
(0.00332146 0.00832596 0)
(0.00110737 0.00825109 0)
(0.0010298 0.00760091 0)
(0.00035033 0.000134442 0)
(-0.00353234 0.000357582 0)
(-0.00340824 0.014713 0)
(0.00528346 -0.0147937 0)
(-0.0025323 -0.00905778 0)
(-0.000363048 -0.0175015 0)
(0.00812358 -0.0288989 0)
(-0.00383258 -0.023918 0)
(0.00639563 -0.0684384 0)
(-0.000956053 0.0567196 0)
(4.97964e-05 0.0340446 0)
(0.00149277 0.00089767 0)
(-0.00333914 -0.00462551 0)
(-0.00314952 0.00379661 0)
(-0.00118493 -0.00115436 0)
(-0.0041068 -0.00746782 0)
(0.000683035 0.00414941 0)
(0.00466352 0.00681244 0)
(0.00654849 0.0108112 0)
(0.00473737 0.00634576 0)
(2.6932e-05 0.000932515 0)
(0.00139962 -0.0022138 0)
(-0.00752549 0.00559638 0)
(0.00725041 -0.00848285 0)
(-0.00103584 -0.00786644 0)
(0.00507966 -0.01625 0)
(-0.00465019 -0.0135985 0)
(-0.00607029 -0.012978 0)
(0.0058516 -0.0677893 0)
(0.000179765 0.0585863 0)
(0.000729841 0.0334442 0)
(-1.59442e-05 0.0184514 0)
(0.000543765 0.011626 0)
(-0.00136395 0.0011699 0)
(0.000429284 -0.000764812 0)
(-0.00424873 -0.000197604 0)
(0.000410191 -0.00130836 0)
(0.0048604 0.00328272 0)
(0.00300916 0.0107462 0)
(0.011051 0.0125077 0)
(0.00391542 0.00487223 0)
(0.00261904 0.00646242 0)
(-0.0013438 0.00952848 0)
(0.00408938 -0.0184469 0)
(0.00266206 -0.00684373 0)
(0.0059367 -0.00877422 0)
(0.00845294 -0.0195105 0)
(-0.00538777 -0.0302264 0)
(0.00732261 -0.0659778 0)
(-0.000441113 0.0562954 0)
(0.00214438 0.0336788 0)
(0.00193272 0.0017722 0)
(-0.00208625 -0.00454149 0)
(0.0103818 0.00236987 0)
(-0.000749793 0.00257797 0)
(0.0111315 -0.00894191 0)
(0.0133661 -0.00630803 0)
(0.00457398 0.00316879 0)
(0.0121333 0.0027454 0)
(0.0130515 0.00710931 0)
(0.01793 0.00722979 0)
(0.0114768 0.00376955 0)
(0.0221668 0.0016168 0)
(0.0105383 -0.0119496 0)
(0.026854 -0.0161366 0)
(0.00934047 -0.0220749 0)
(0.0123078 -0.00391342 0)
(-0.00509663 -0.0146155 0)
(0.00856084 -0.0640114 0)
(0.0013489 0.0558982 0)
(0.00350202 0.0327405 0)
(0.00741519 0.0205479 0)
(0.00593723 0.00491155 0)
(0.0006794 -0.000622505 0)
(0.0114027 -0.000220954 0)
(0.0111093 -0.0140443 0)
(0.0117159 0.00412031 0)
(0.00898078 0.00657092 0)
(0.016912 0.00210388 0)
(0.0110015 0.00674682 0)
(0.0222858 0.0101919 0)
(0.0108053 0.00190687 0)
(0.0273867 0.0110022 0)
(0.0111512 -0.0138899 0)
(0.0171345 -0.00547066 0)
(-0.018454 0.0126025 0)
(0.0123304 -0.0101889 0)
(-0.00867869 -0.0162548 0)
(0.0129116 -0.0649176 0)
(0.00158888 0.0510149 0)
(0.00860496 0.0285658 0)
(0.00293411 0.00372466 0)
(0.0128321 -0.000215277 0)
(0.0066623 -0.0034992 0)
(0.00499137 -0.00818837 0)
(0.0148011 -0.00694983 0)
(-0.00220694 -0.00552073 0)
(0.027882 -0.000850439 0)
(0.0208602 -0.00203444 0)
(0.0258221 0.00408373 0)
(0.0162572 0.00261359 0)
(0.0233874 -0.000635783 0)
(0.0137531 -0.00197047 0)
(0.0232035 -0.00269562 0)
(-0.000150347 0.00630032 0)
(0.00634089 -0.0143813 0)
(0.016879 -0.0203016 0)
(-0.0115303 -0.0233237 0)
(0.00946615 -0.065977 0)
(0.00384664 0.0460825 0)
(0.0125569 0.0288166 0)
(0.0218807 0.0149656 0)
(0.0099406 0.0028266 0)
(0.0242517 0.00489759 0)
(0.00914395 -0.00593844 0)
(0.0259675 -0.0104261 0)
(0.00988423 -0.0122754 0)
(0.0284313 -0.0114275 0)
(0.00852612 0.0021301 0)
(0.0294588 0.011194 0)
(0.0173074 0.0149511 0)
(0.0236824 0.00402306 0)
(0.023276 0.0134556 0)
(0.0218312 -0.00103232 0)
(0.0221462 0.0134105 0)
(0.0234888 -0.00142944 0)
(0.0120516 0.0104765 0)
(0.00160954 0.00276549 0)
(0.0172887 -0.0587679 0)
(0.00731158 0.0336657 0)
(0.0178347 0.0178884 0)
(0.0234091 0.00685276 0)
(0.0252196 -0.00123757 0)
(0.0171754 -0.00368838 0)
(0.020128 -0.00591926 0)
(0.00158973 -0.00639338 0)
(-0.00424837 -0.0042309 0)
(-0.0254671 -0.00473676 0)
(-0.0201363 -0.0039222 0)
(-0.0228542 -0.000151283 0)
(-0.00897409 0.00106828 0)
(-0.0145437 -0.00474205 0)
(-0.00466115 0.0043079 0)
(-0.00551965 -0.00778053 0)
(-0.0093718 0.0086534 0)
(0.0103076 -0.00930646 0)
(-0.013164 -0.00202975 0)
(0.0234488 -0.0377707 0)
(0.0142338 -0.0620997 0)
(0.0101876 0.0204006 0)
(0.0363018 0.0140212 0)
(0.0442675 0.0105687 0)
(0.0505659 0.00822053 0)
(0.0556892 0.00858419 0)
(0.0533358 0.00794628 0)
(0.0607331 0.00955116 0)
(0.0556188 0.00975317 0)
(0.0641747 0.00904323 0)
(0.0598823 0.00460683 0)
(0.0681858 0.00287546 0)
(0.0608842 0.00099401 0)
(0.0685313 0.00446693 0)
(0.0634283 0.000322277 0)
(0.0679078 0.004782 0)
(0.0674133 0.00010091 0)
(0.0654298 0.00301984 0)
(0.0682752 -0.000167735 0)
(0.0534879 -0.00430868 0)
(0.0359357 -0.0041677 0)
)
;

boundaryField
{
    movingWall
    {
        type            fixedValue;
        value           uniform (1 0 0);
    }
    fixedWalls
    {
        type            noSlip;
    }
    frontAndBack
    {
        type            empty;
    }
}


// ************************************************************************* //
