/*--------------------------------*- C++ -*----------------------------------*\
| =========                 |                                                 |
| \\      /  F ield         | OpenFOAM: The Open Source CFD Toolbox           |
|  \\    /   O peration     | Version:  5.x                                   |
|   \\  /    A nd           | Web:      www.OpenFOAM.org                      |
|    \\/     M anipulation  |                                                 |
\*---------------------------------------------------------------------------*/
FoamFile
{
    version     2.0;
    format      ascii;
    class       volScalarField;
    location    "5.8";
    object      p;
}
// * * * * * * * * * * * * * * * * * * * * * * * * * * * * * * * * * * * * * //

dimensions      [0 2 -2 0 0 0 0];

internalField   nonuniform List<scalar> 
400
(
4.12184e-11
4.64471e-06
1.46948e-05
3.14207e-05
5.72834e-05
9.59834e-05
0.00015182
0.000218528
0.000243467
7.5881e-05
-0.000265553
-0.000571232
-0.000747129
-0.000869157
-0.000819767
-0.000569893
-0.000243013
0.000118132
0.000590628
0.00128526
-6.01067e-06
-2.25747e-06
5.5789e-06
1.77584e-05
3.44865e-05
5.48544e-05
7.46215e-05
7.91813e-05
2.02209e-05
-0.000196939
-0.000458399
-0.000562334
-0.000736961
-0.000981699
-0.00102549
-0.00078068
-0.000480816
-0.000218285
9.69813e-05
0.00059308
-1.73328e-05
-1.48701e-05
-9.93167e-06
-2.84563e-06
5.52409e-06
1.29224e-05
1.40965e-05
-2.34729e-06
-5.6515e-05
-0.000177581
-0.000354202
-0.000564285
-0.000825839
-0.000993189
-0.000950397
-0.000780651
-0.000577222
-0.000381188
-0.000181852
0.000114366
-3.21102e-05
-3.09842e-05
-2.89032e-05
-2.65484e-05
-2.51851e-05
-2.72857e-05
-3.72929e-05
-6.24442e-05
-0.000114146
-0.000203096
-0.000334526
-0.000481375
-0.000625097
-0.000708517
-0.000728371
-0.000649274
-0.000525143
-0.000384597
-0.00033592
-0.000137951
-4.86741e-05
-4.87151e-05
-4.89973e-05
-5.02991e-05
-5.38477e-05
-6.17562e-05
-7.74136e-05
-0.00010483
-0.000150896
-0.000219367
-0.000310088
-0.000405892
-0.000496762
-0.000556727
-0.000581286
-0.000527785
-0.00046686
-0.000367356
-0.000356414
-0.000243557
-6.55571e-05
-6.6495e-05
-6.85198e-05
-7.23355e-05
-7.89557e-05
-8.98427e-05
-0.000107636
-0.00013368
-0.000172668
-0.000224
-0.000286849
-0.000350047
-0.000409945
-0.000444616
-0.000461472
-0.0004266
-0.000393989
-0.000326926
-0.000311722
-0.000272468
-8.1678e-05
-8.3285e-05
-8.65093e-05
-9.19315e-05
-0.000100265
-0.000112238
-0.000129933
-0.000153759
-0.000185738
-0.000224405
-0.000269497
-0.000312477
-0.000354172
-0.000375949
-0.00039174
-0.000363442
-0.000354942
-0.000289463
-0.000296297
-0.000220487
-9.62759e-05
-9.84108e-05
-0.000102437
-0.000108726
-0.000117823
-0.000130006
-0.000146545
-0.000167193
-0.000193342
-0.000222697
-0.000256308
-0.000285671
-0.000316655
-0.000326121
-0.000344632
-0.000312543
-0.000320938
-0.00025756
-0.000280881
-0.000250744
-0.00010878
-0.000111445
-0.000116278
-0.000123317
-0.000132643
-0.000144483
-0.000159405
-0.00017706
-0.00019844
-0.000220871
-0.000246734
-0.000266971
-0.000291752
-0.000297465
-0.000315948
-0.000292979
-0.000316137
-0.000258826
-0.000342395
-0.000276035
-0.000118969
-0.000122615
-0.000128027
-0.000135288
-0.000144392
-0.000155092
-0.000168437
-0.000183128
-0.000200854
-0.000217771
-0.000238678
-0.000251243
-0.000273159
-0.000268432
-0.000293879
-0.000252499
-0.000296671
-0.000217691
-0.000264711
-0.00018139
-0.000125859
-0.000130487
-0.000137928
-0.000146211
-0.000155507
-0.00016596
-0.000177648
-0.000190157
-0.000204606
-0.000217676
-0.000234738
-0.000243671
-0.000262651
-0.000259618
-0.000281173
-0.000255095
-0.000282806
-0.000218348
-0.000271551
-0.000216367
-0.000130384
-0.000140117
-0.000147495
-0.000155647
-0.000163725
-0.000171836
-0.000182159
-0.000191765
-0.000204261
-0.000213365
-0.000228261
-0.000231528
-0.000249791
-0.000238531
-0.000265778
-0.000229305
-0.000280328
-0.000213834
-0.00031014
-0.000227618
-0.000129033
-0.000140342
-0.000154389
-0.000165239
-0.000174103
-0.00018367
-0.000192061
-0.000200515
-0.000209933
-0.000217393
-0.000229247
-0.000232686
-0.000248042
-0.000242994
-0.000265255
-0.000245437
-0.000275572
-0.000228444
-0.00029766
-0.000224425
-0.000128311
-0.000163252
-0.000167884
-0.000179017
-0.000181917
-0.000185847
-0.000192505
-0.000197233
-0.00020618
-0.000210537
-0.000221552
-0.000220754
-0.000234195
-0.000224489
-0.00024126
-0.000219467
-0.000259582
-0.000222623
-0.000279146
-0.000240471
-0.000135628
-0.000179347
-0.000178076
-0.000185114
-0.000197248
-0.000205069
-0.000205414
-0.000210808
-0.000214979
-0.000220135
-0.000226532
-0.000230615
-0.000237362
-0.000238823
-0.00025636
-0.000247817
-0.000278889
-0.00023702
-0.000302346
-0.000235012
-0.000258627
-0.000285076
-0.000199195
-0.000234692
-0.000206324
-0.000194675
-0.000196133
-0.000198289
-0.000206427
-0.000209015
-0.000218189
-0.000216023
-0.000227327
-0.000222751
-0.000224552
-0.000208134
-0.000209622
-0.000226996
-0.000241848
-0.000209283
-0.000111188
-0.000258448
-0.000272217
-0.000219079
-0.000203375
-0.000206753
-0.000199651
-0.000216371
-0.000214807
-0.00022482
-0.000224884
-0.000233061
-0.000225615
-0.000253122
-0.000229511
-0.000251083
-0.000335151
-0.00022646
-0.000319796
-0.000123782
-0.000133129
-0.000318168
-0.000221497
-0.000179075
-0.000204097
-0.000189425
-0.000202784
-0.000204401
-0.000215717
-0.000218521
-0.000223389
-0.00022025
-0.000222857
-0.000216048
-0.000233913
-0.000300189
-0.000202548
-0.000122526
-8.82584e-05
5.69424e-05
-8.57216e-05
-0.000196137
-0.000220621
-0.000227382
-0.000200968
-0.000189609
-0.000200808
-0.00020743
-0.000221455
-0.000223485
-0.000227677
-0.000224602
-0.000256883
-0.000215073
-0.000239442
-0.000295305
-0.000190097
-0.000269566
-0.00018184
0.000314674
-0.000241445
-0.000197316
-0.000162667
-0.000223373
-0.000171792
-0.000183701
-0.000182527
-0.000190835
-0.000198076
-0.000196025
-0.000198724
-0.000197736
-0.000202349
-0.000200038
-0.000206323
-0.000190498
-0.000180919
1.98392e-05
0.000434477
0.00165087
)
;

boundaryField
{
    movingWall
    {
        type            zeroGradient;
    }
    fixedWalls
    {
        type            zeroGradient;
    }
    frontAndBack
    {
        type            empty;
    }
}


// ************************************************************************* //
