/*--------------------------------*- C++ -*----------------------------------*\
| =========                 |                                                 |
| \\      /  F ield         | OpenFOAM: The Open Source CFD Toolbox           |
|  \\    /   O peration     | Version:  5.x                                   |
|   \\  /    A nd           | Web:      www.OpenFOAM.org                      |
|    \\/     M anipulation  |                                                 |
\*---------------------------------------------------------------------------*/
FoamFile
{
    version     2.0;
    format      ascii;
    class       surfaceScalarField;
    location    "5.8";
    object      phi;
}
// * * * * * * * * * * * * * * * * * * * * * * * * * * * * * * * * * * * * * //

dimensions      [0 3 -1 0 0 0 0];

internalField   nonuniform List<scalar> 
760
(
-3.88474e-08
3.88474e-08
-8.23378e-08
4.34904e-08
-1.33065e-07
5.07269e-08
-1.97234e-07
6.41689e-08
-2.85601e-07
8.83677e-08
-4.18665e-07
1.33063e-07
-6.37842e-07
2.19178e-07
-1.02045e-06
3.8261e-07
-1.63869e-06
6.18238e-07
-2.3308e-06
6.92105e-07
-2.72771e-06
3.96911e-07
-2.88675e-06
1.59047e-07
-3.06979e-06
1.83036e-07
-3.18544e-06
1.15647e-07
-3.02871e-06
-1.5673e-07
-2.74805e-06
-2.80661e-07
-2.42879e-06
-3.1926e-07
-1.97535e-06
-4.53438e-07
-1.24342e-06
-7.31932e-07
-1.24342e-06
-3.80596e-08
7.6907e-08
-7.99012e-08
8.5332e-08
-1.26387e-07
9.72128e-08
-1.80188e-07
1.1797e-07
-2.43857e-07
1.52037e-07
-3.18168e-07
2.07374e-07
-3.96012e-07
2.97022e-07
-4.50666e-07
4.37264e-07
-4.64043e-07
6.31615e-07
-5.70057e-07
7.98119e-07
-9.93763e-07
8.20618e-07
-1.56029e-06
7.2557e-07
-1.89002e-06
5.12775e-07
-1.94643e-06
1.7205e-07
-1.9544e-06
-1.48757e-07
-1.81568e-06
-4.19379e-07
-1.54811e-06
-5.86835e-07
-1.25722e-06
-7.44327e-07
-7.95667e-07
-1.19348e-06
-2.03908e-06
-3.26137e-08
1.09521e-07
-6.79651e-08
1.20683e-07
-1.05544e-07
1.34792e-07
-1.45995e-07
1.5842e-07
-1.8849e-07
1.94533e-07
-2.28842e-07
2.47726e-07
-2.55674e-07
3.23853e-07
-2.46448e-07
4.28039e-07
-1.74151e-07
5.59318e-07
-6.54463e-08
6.89415e-07
-1.92667e-09
7.57098e-07
8.42621e-09
7.15217e-07
-3.46215e-08
5.55823e-07
-1.5473e-07
2.92158e-07
-2.86522e-07
-1.69641e-08
-3.49707e-07
-3.56195e-07
-3.99822e-07
-5.3672e-07
-4.25833e-07
-7.18316e-07
-3.8116e-07
-1.23816e-06
-2.42024e-06
-2.57843e-08
1.35305e-07
-5.34056e-08
1.48305e-07
-8.13164e-08
1.62703e-07
-1.08802e-07
1.85906e-07
-1.33663e-07
2.19393e-07
-1.51192e-07
2.65255e-07
-1.5272e-07
3.25382e-07
-1.23921e-07
3.9924e-07
-4.79854e-08
4.83382e-07
8.20675e-08
5.59362e-07
2.36564e-07
6.02602e-07
3.7716e-07
5.7462e-07
4.55134e-07
4.77848e-07
4.61226e-07
2.86067e-07
3.94329e-07
4.99328e-08
2.48293e-07
-2.10158e-07
8.95521e-08
-3.77979e-07
-3.28677e-08
-5.95897e-07
-1.31345e-07
-1.13968e-06
-2.55159e-06
-1.86414e-08
1.53946e-07
-3.85226e-08
1.68186e-07
-5.75732e-08
1.81753e-07
-7.44803e-08
2.02813e-07
-8.67553e-08
2.31668e-07
-9.02195e-08
2.68719e-07
-7.88578e-08
3.1402e-07
-4.35999e-08
3.63982e-07
2.31934e-08
4.16589e-07
1.26176e-07
4.56379e-07
2.52222e-07
4.76555e-07
3.82273e-07
4.4457e-07
4.79527e-07
3.80594e-07
5.31823e-07
2.33771e-07
4.83184e-07
9.85716e-08
3.92971e-07
-1.19946e-07
2.74593e-07
-2.59601e-07
1.32995e-07
-4.54298e-07
1.47095e-08
-1.02139e-06
-2.53688e-06
-1.17998e-08
1.65746e-07
-2.46362e-08
1.81022e-07
-3.62605e-08
1.93378e-07
-4.52018e-08
2.11755e-07
-4.92531e-08
2.35719e-07
-4.4901e-08
2.64367e-07
-2.8801e-08
2.9792e-07
5.30085e-09
3.2988e-07
5.80522e-08
3.63838e-07
1.34218e-07
3.80213e-07
2.21256e-07
3.89517e-07
3.15126e-07
3.507e-07
3.81359e-07
3.14361e-07
4.26903e-07
1.88227e-07
4.01039e-07
1.24435e-07
3.49317e-07
-6.82231e-08
2.33533e-07
-1.43818e-07
1.34437e-07
-3.55202e-07
1.64489e-08
-9.03405e-07
-2.52043e-06
-5.31826e-09
1.71065e-07
-1.20034e-08
1.87707e-07
-1.76508e-08
1.99025e-07
-2.10534e-08
2.15157e-07
-2.02003e-08
2.34866e-07
-1.19784e-08
2.56145e-07
5.06969e-09
2.80872e-07
3.41316e-08
3.00818e-07
7.52518e-08
3.22718e-07
1.31481e-07
3.23984e-07
1.90718e-07
3.3028e-07
2.56476e-07
2.84942e-07
2.98981e-07
2.71857e-07
3.36399e-07
1.50808e-07
3.15289e-07
1.45545e-07
2.85813e-07
-3.87467e-08
2.02282e-07
-6.0287e-08
1.43889e-07
-2.96809e-07
4.96685e-08
-8.09185e-07
-2.47076e-06
5.26513e-10
1.70538e-07
-8.81954e-10
1.89116e-07
-2.08036e-09
2.00223e-07
-1.69202e-09
2.14769e-07
2.12e-09
2.31054e-07
1.06739e-08
2.47591e-07
2.59734e-08
2.65572e-07
4.99871e-08
2.76804e-07
8.109e-08
2.91615e-07
1.2151e-07
2.83564e-07
1.61374e-07
2.90416e-07
2.04573e-07
2.41744e-07
2.2935e-07
2.47079e-07
2.47953e-07
1.32206e-07
2.30356e-07
1.63142e-07
2.08878e-07
-1.72685e-08
1.34648e-07
1.39423e-08
5.67836e-08
-2.18944e-07
-9.30433e-08
-6.59358e-07
-2.56381e-06
7.53844e-09
1.63e-07
1.1222e-08
1.85432e-07
1.36692e-08
1.97776e-07
1.51701e-08
2.13268e-07
1.90351e-08
2.27189e-07
2.61071e-08
2.40519e-07
3.87588e-08
2.52921e-07
5.76022e-08
2.57961e-07
8.1615e-08
2.67602e-07
1.11545e-07
2.53634e-07
1.40398e-07
2.61562e-07
1.72139e-07
2.10004e-07
1.89978e-07
2.2924e-07
2.05134e-07
1.17049e-07
1.90214e-07
1.78063e-07
1.64573e-07
8.37203e-09
1.04252e-07
7.42636e-08
7.66624e-08
-1.91355e-07
6.66918e-08
-6.49387e-07
-2.49711e-06
1.44601e-08
1.48539e-07
1.96849e-08
1.80207e-07
2.26473e-08
1.94814e-07
2.57024e-08
2.10213e-07
3.00634e-08
2.22828e-07
3.78655e-08
2.32717e-07
4.82624e-08
2.42524e-07
6.21031e-08
2.4412e-07
7.90545e-08
2.50651e-07
9.80804e-08
2.34608e-07
1.16824e-07
2.42819e-07
1.32389e-07
1.94438e-07
1.42415e-07
2.19214e-07
1.41535e-07
1.1793e-07
1.33843e-07
1.85755e-07
1.24477e-07
1.77377e-08
9.93721e-08
9.93686e-08
6.28781e-08
-1.54861e-07
3.09286e-08
-6.17438e-07
-2.46619e-06
2.90205e-08
1.19519e-07
4.6053e-08
1.63175e-07
5.10431e-08
1.89824e-07
4.752e-08
2.13736e-07
4.55377e-08
2.2481e-07
4.35427e-08
2.34712e-07
4.8285e-08
2.37782e-07
5.65329e-08
2.35872e-07
7.06867e-08
2.36497e-07
8.60106e-08
2.19284e-07
1.04286e-07
2.24544e-07
1.19841e-07
1.78883e-07
1.34378e-07
2.04677e-07
1.38196e-07
1.14112e-07
1.35542e-07
1.88409e-07
9.83628e-08
5.49167e-08
5.47852e-08
1.42946e-07
-1.79893e-08
-8.20862e-08
-7.54644e-08
-5.59962e-07
-2.54165e-06
4.63554e-08
7.31636e-08
4.02035e-08
1.69327e-07
3.63189e-08
1.93708e-07
3.89626e-08
2.11093e-07
4.30959e-08
2.20677e-07
5.11263e-08
2.26682e-07
5.71739e-08
2.31734e-07
6.25487e-08
2.30497e-07
7.06666e-08
2.28379e-07
7.54632e-08
2.14488e-07
8.44653e-08
2.15542e-07
8.15131e-08
1.81835e-07
8.805e-08
1.9814e-07
6.47261e-08
1.37436e-07
7.07525e-08
1.82383e-07
3.176e-08
9.39092e-08
4.06832e-08
1.34023e-07
1.29498e-09
-4.26979e-08
1.85285e-08
-5.77196e-07
-2.52312e-06
9.13038e-08
-1.81402e-08
1.3587e-07
1.24761e-07
1.32085e-07
1.97494e-07
9.29767e-08
2.502e-07
6.70843e-08
2.46569e-07
4.20892e-08
2.51677e-07
3.64904e-08
2.37333e-07
3.65797e-08
2.30408e-07
4.74548e-08
2.17504e-07
5.43502e-08
2.07592e-07
7.29061e-08
1.96986e-07
7.78343e-08
1.76907e-07
1.0395e-07
1.72024e-07
1.02158e-07
1.39228e-07
1.2368e-07
1.60861e-07
9.80524e-08
1.19536e-07
7.83113e-08
1.53764e-07
-2.85187e-08
6.41321e-08
-4.2689e-08
-5.63026e-07
-2.56581e-06
1.8427e-07
-2.0241e-07
7.32132e-08
2.35817e-07
4.93643e-08
2.21343e-07
6.75982e-08
2.31966e-07
7.28048e-08
2.41363e-07
7.81871e-08
2.46294e-07
7.52662e-08
2.40254e-07
6.97119e-08
2.35962e-07
7.03256e-08
2.1689e-07
6.46704e-08
2.13248e-07
6.74924e-08
1.94164e-07
5.40815e-08
1.90318e-07
5.26402e-08
1.73466e-07
1.71438e-08
1.74724e-07
1.08997e-08
1.67105e-07
-6.81933e-08
1.98629e-07
2.51411e-08
6.04296e-08
3.2804e-08
5.64692e-08
2.51438e-08
-5.55365e-07
-2.54067e-06
3.05844e-07
-5.08254e-07
2.63868e-07
2.77793e-07
1.42674e-07
3.42537e-07
-1.01464e-08
3.84786e-07
-6.33382e-08
2.94555e-07
-7.47199e-08
2.57676e-07
-5.75388e-08
2.23073e-07
-4.0301e-08
2.18724e-07
-1.81722e-08
1.94761e-07
-7.90155e-09
2.02977e-07
1.51279e-08
1.71134e-07
1.28213e-08
1.92624e-07
5.54108e-08
1.30876e-07
2.3975e-08
2.0616e-07
1.26422e-07
6.46584e-08
1.29535e-07
1.95517e-07
1.02975e-07
8.6989e-08
-1.27702e-09
1.60721e-07
-2.16474e-08
-5.34995e-07
-2.56231e-06
1.63917e-07
-6.72171e-07
2.42715e-07
1.98995e-07
3.65753e-07
2.19499e-07
3.83142e-07
3.67398e-07
3.5141e-07
3.26286e-07
2.81982e-07
3.27104e-07
2.44134e-07
2.60921e-07
2.02864e-07
2.59994e-07
1.80446e-07
2.1718e-07
1.53934e-07
2.29489e-07
1.49948e-07
1.7512e-07
1.27465e-07
2.15107e-07
1.43329e-07
1.15012e-07
1.09e-07
2.40489e-07
2.42067e-08
1.49451e-07
-5.83937e-08
2.78117e-07
6.73702e-08
-3.8775e-08
3.67017e-08
1.9139e-07
4.39971e-08
-5.4229e-07
-2.51832e-06
-2.44077e-07
-4.28094e-07
-5.70559e-07
5.25477e-07
-4.82242e-07
1.31182e-07
-3.87659e-07
2.72815e-07
-3.91023e-07
3.2965e-07
-3.26631e-07
2.62713e-07
-3.28119e-07
2.62408e-07
-2.95967e-07
2.27842e-07
-2.80477e-07
2.0169e-07
-2.5503e-07
2.04042e-07
-2.31399e-07
1.51489e-07
-2.07882e-07
1.9159e-07
-2.02133e-07
1.09263e-07
-2.19219e-07
2.57575e-07
-1.02969e-07
3.32007e-08
-2.0433e-07
3.79478e-07
1.01928e-07
-3.45033e-07
1.95931e-07
9.73874e-08
4.95781e-08
-3.95938e-07
-2.46874e-06
9.23041e-09
-4.37325e-07
4.00359e-07
1.34348e-07
2.62282e-07
2.69259e-07
3.48527e-07
1.8657e-07
4.12951e-07
2.65226e-07
4.92571e-07
1.83092e-07
5.51474e-07
2.03506e-07
5.94373e-07
1.84943e-07
6.4211e-07
1.53953e-07
6.42882e-07
2.03269e-07
6.64649e-07
1.29723e-07
6.27284e-07
2.28955e-07
6.15275e-07
1.21272e-07
5.34177e-07
3.38673e-07
6.39965e-07
-7.25874e-08
5.72345e-07
4.47098e-07
3.31802e-07
-1.0449e-07
1.869e-07
2.42289e-07
2.5375e-07
-4.62787e-07
-2.21499e-06
-7.97177e-07
3.59852e-07
-9.28821e-07
2.65993e-07
-9.23287e-07
2.63725e-07
-8.99238e-07
1.62521e-07
-8.1427e-07
1.80258e-07
-7.68241e-07
1.37063e-07
-7.23552e-07
1.58818e-07
-6.7746e-07
1.38851e-07
-6.37159e-07
1.13651e-07
-5.63081e-07
1.29191e-07
-5.20543e-07
8.71847e-08
-4.17198e-07
1.25611e-07
-3.75606e-07
7.96786e-08
-1.66564e-07
1.29632e-07
-2.9222e-07
5.30684e-08
7.19905e-09
1.47679e-07
-6.10689e-08
-3.62218e-08
2.03519e-07
-2.22989e-08
6.67604e-07
-9.26872e-07
-1.54738e-06
3.59852e-07
6.25845e-07
8.8957e-07
1.05209e-06
1.23235e-06
1.36941e-06
1.52823e-06
1.66708e-06
1.78073e-06
1.90992e-06
1.99711e-06
2.12272e-06
2.2024e-06
2.33203e-06
2.3851e-06
2.53278e-06
2.49656e-06
2.47426e-06
1.54738e-06
)
;

boundaryField
{
    movingWall
    {
        type            calculated;
        value           uniform 0;
    }
    fixedWalls
    {
        type            calculated;
        value           uniform 0;
    }
    frontAndBack
    {
        type            empty;
        value           nonuniform 0();
    }
}


// ************************************************************************* //
