/*--------------------------------*- C++ -*----------------------------------*\
| =========                 |                                                 |
| \\      /  F ield         | OpenFOAM: The Open Source CFD Toolbox           |
|  \\    /   O peration     | Version:  5.x                                   |
|   \\  /    A nd           | Web:      www.OpenFOAM.org                      |
|    \\/     M anipulation  |                                                 |
\*---------------------------------------------------------------------------*/
FoamFile
{
    version     2.0;
    format      ascii;
    class       volScalarField;
    location    "16.2";
    object      p;
}
// * * * * * * * * * * * * * * * * * * * * * * * * * * * * * * * * * * * * * //

dimensions      [0 2 -2 0 0 0 0];

internalField   nonuniform List<scalar> 
400
(
3.0269e-11
-0.000534137
-0.000944368
-0.0012217
-0.00136408
-0.00145374
-0.00149347
-0.00152551
-0.00152558
-0.00152112
-0.00150165
-0.0014845
-0.00147571
-0.00146483
-0.00144986
-0.00135435
-0.00114585
-0.000819799
-0.000511042
0.000974793
-0.000593758
-0.000964313
-0.00122688
-0.00136657
-0.00143012
-0.00149206
-0.00151102
-0.00153026
-0.00154501
-0.00151913
-0.00152315
-0.00149068
-0.00149725
-0.00149372
-0.00149885
-0.00148283
-0.00140663
-0.00130052
-0.00119161
-0.000142725
-0.000976042
-0.00125209
-0.00135162
-0.00143159
-0.00145397
-0.0014847
-0.00150277
-0.00151123
-0.0015184
-0.00150691
-0.00150893
-0.00149558
-0.00149967
-0.0014868
-0.00150118
-0.00143951
-0.0014517
-0.001377
-0.00131996
-0.000881001
-0.00120221
-0.0013669
-0.00140205
-0.00143607
-0.00145198
-0.00147571
-0.00149464
-0.00150469
-0.00151769
-0.00151445
-0.00151585
-0.00150357
-0.00150663
-0.00150176
-0.0015143
-0.001507
-0.00150004
-0.00143673
-0.00151529
-0.00130407
-0.00132197
-0.00140113
-0.0014103
-0.00143759
-0.00145116
-0.00147378
-0.00148952
-0.00149951
-0.00151365
-0.00150782
-0.00151419
-0.00150003
-0.0015068
-0.00150519
-0.00152024
-0.00149618
-0.00153025
-0.00147663
-0.0015068
-0.00142259
-0.00136691
-0.00140595
-0.00142426
-0.00143721
-0.00145542
-0.0014735
-0.00149155
-0.00150313
-0.0015162
-0.00151555
-0.00151603
-0.00151206
-0.00150788
-0.00150826
-0.00153493
-0.0015124
-0.00156594
-0.00148921
-0.00157022
-0.0014847
-0.00140124
-0.00142409
-0.00143004
-0.00144696
-0.00145425
-0.00147586
-0.00149244
-0.00150761
-0.00152431
-0.00152193
-0.00151564
-0.00149409
-0.00149966
-0.00152109
-0.00153338
-0.00151573
-0.00157913
-0.00151023
-0.00153266
-0.00151377
-0.00141049
-0.00141815
-0.00142407
-0.00143838
-0.00145486
-0.00147501
-0.00149931
-0.00152102
-0.00153963
-0.00154042
-0.00154522
-0.00153699
-0.0014996
-0.00150981
-0.00154268
-0.00152238
-0.00156304
-0.00152907
-0.0015959
-0.00152057
-0.00140629
-0.00142853
-0.00143112
-0.00145198
-0.00145974
-0.00147859
-0.00150993
-0.00153915
-0.00156806
-0.00156658
-0.00155054
-0.00154338
-0.00152454
-0.00155225
-0.00159095
-0.00154964
-0.00158115
-0.00151775
-0.00157151
-0.00149548
-0.00141069
-0.00141478
-0.00141076
-0.00143295
-0.00144072
-0.00145585
-0.00149947
-0.0015458
-0.00159479
-0.00161239
-0.00162351
-0.0016256
-0.00156949
-0.00155315
-0.00157342
-0.0015382
-0.00156092
-0.00151732
-0.00153171
-0.00155
-0.00140306
-0.0014214
-0.00142743
-0.00144126
-0.00146321
-0.00147458
-0.00152016
-0.00157652
-0.00163138
-0.00165039
-0.00168834
-0.00169704
-0.00167605
-0.00159376
-0.0016688
-0.00157558
-0.00175259
-0.00163529
-0.00164713
-0.00160043
-0.00141019
-0.00142141
-0.00141717
-0.00142752
-0.00146139
-0.00145144
-0.0015054
-0.00160037
-0.00169676
-0.00169992
-0.0016811
-0.00174255
-0.00170586
-0.0015348
-0.00160903
-0.00154559
-0.00165272
-0.00156596
-0.0016292
-0.00154686
-0.00140294
-0.00139007
-0.00141417
-0.00141235
-0.0014706
-0.00144033
-0.00155613
-0.00165162
-0.00180486
-0.00180013
-0.00170769
-0.00185472
-0.00169975
-0.00152779
-0.00164256
-0.00151594
-0.00158678
-0.00152268
-0.00153522
-0.00145288
-0.00139573
-0.00141244
-0.00142173
-0.00139277
-0.00146256
-0.00142732
-0.00153876
-0.00165666
-0.00182425
-0.00187289
-0.00171807
-0.00188814
-0.00163464
-0.00151696
-0.0015417
-0.00149902
-0.00156782
-0.00139208
-0.00143368
-0.00138079
-0.00136964
-0.00138422
-0.00140829
-0.00137359
-0.00143247
-0.001363
-0.00149681
-0.00157088
-0.00174831
-0.0018124
-0.00169743
-0.00177241
-0.0015862
-0.00150873
-0.00161942
-0.00152212
-0.0015495
-0.00138608
-0.00133103
-0.00138181
-0.00129218
-0.00133681
-0.00137964
-0.00134406
-0.00143859
-0.00133729
-0.00143209
-0.00151945
-0.00158153
-0.00168455
-0.00164729
-0.00170528
-0.0015741
-0.00153292
-0.00158848
-0.00136435
-0.00132347
-0.00137501
-0.00125303
-0.00135809
-0.00118514
-0.00127971
-0.00137377
-0.00136356
-0.00138744
-0.00137569
-0.00142222
-0.00146843
-0.00152426
-0.00159417
-0.0016189
-0.00149597
-0.00131797
-0.00185556
-0.00163083
-0.00156505
-0.00150975
-0.00143589
-0.00148709
-0.00115463
-0.00100484
-0.00119216
-0.00127679
-0.00133443
-0.00138189
-0.00136989
-0.00141456
-0.00147885
-0.0015033
-0.00157978
-0.00170265
-0.00181855
-0.00168238
-0.00153283
-0.00138075
-0.0014118
-0.00139825
-0.00116495
-0.000935806
-0.000744011
-0.000738352
-0.000960574
-0.00120376
-0.0012563
-0.00130293
-0.00128339
-0.0013606
-0.00148415
-0.00154142
-0.00171768
-0.00196996
-0.00191459
-0.00170566
-0.00123666
-0.00128446
-0.00147789
-0.00128307
-0.00158462
-0.0012762
-0.000310954
-0.000456603
-0.000694764
-0.00102256
-0.00124964
-0.0013495
-0.00138889
-0.00140271
-0.00147963
-0.00160078
-0.0017018
-0.00165357
-0.00151298
-0.00134266
-0.00126864
-0.0013061
-0.00137735
-0.00130181
-0.000954171
-0.00032357
0.00160703
)
;

boundaryField
{
    movingWall
    {
        type            zeroGradient;
    }
    fixedWalls
    {
        type            zeroGradient;
    }
    frontAndBack
    {
        type            empty;
    }
}


// ************************************************************************* //
