/*--------------------------------*- C++ -*----------------------------------*\
| =========                 |                                                 |
| \\      /  F ield         | OpenFOAM: The Open Source CFD Toolbox           |
|  \\    /   O peration     | Version:  5.x                                   |
|   \\  /    A nd           | Web:      www.OpenFOAM.org                      |
|    \\/     M anipulation  |                                                 |
\*---------------------------------------------------------------------------*/
FoamFile
{
    version     2.0;
    format      ascii;
    class       volVectorField;
    location    "16.2";
    object      U;
}
// * * * * * * * * * * * * * * * * * * * * * * * * * * * * * * * * * * * * * //

dimensions      [0 1 -1 0 0 0 0];

internalField   nonuniform List<vector> 
400
(
(-0.0143366 0.0075931 0)
(-0.0339554 0.00838547 0)
(-0.0433456 0.00324057 0)
(-0.0494041 0.00242632 0)
(-0.0519684 0.00103602 0)
(-0.0557408 0.00119926 0)
(-0.0554486 -0.000416194 0)
(-0.058772 0.000589458 0)
(-0.0571257 -0.000978811 0)
(-0.0590673 -0.000539231 0)
(-0.0577698 -0.000845055 0)
(-0.0581218 -0.00136059 0)
(-0.0586742 -0.000402486 0)
(-0.0581009 -0.00193416 0)
(-0.0596984 -0.000569239 0)
(-0.0571836 -0.00253156 0)
(-0.0564817 -0.00276272 0)
(-0.0500723 -0.00732758 0)
(-0.0509398 -0.0120115 0)
(-0.00305184 -0.0226614 0)
(-0.00827408 0.0327001 0)
(-0.0200077 0.0213957 0)
(-0.0202703 0.0104678 0)
(-0.0246384 0.00707128 0)
(-0.0207604 0.00275159 0)
(-0.0275374 0.00338305 0)
(-0.020067 0.00120814 0)
(-0.0282286 0.00200727 0)
(-0.0218608 0.000357453 0)
(-0.0266205 0.0012775 0)
(-0.0241858 0.000565369 0)
(-0.0243115 0.00126638 0)
(-0.0256266 0.000569868 0)
(-0.0258094 0.000772994 0)
(-0.0270011 0.000107441 0)
(-0.0287501 -0.000669726 0)
(-0.0252352 -0.00151084 0)
(-0.0262612 -0.0112099 0)
(-0.0351089 -0.0227368 0)
(-0.00376081 -0.0472936 0)
(-0.00589974 0.0391856 0)
(-0.00787154 0.0253258 0)
(-0.00719476 0.0112039 0)
(-0.00772854 0.00495892 0)
(-0.00417219 0.00222443 0)
(-0.00868692 0.00243722 0)
(-0.00370571 0.000885168 0)
(-0.00961725 0.00104425 0)
(-0.00570755 8.04764e-05 0)
(-0.0108442 -0.000535926 0)
(-0.00908061 -0.00073205 0)
(-0.0122696 -0.00113227 0)
(-0.0115392 0.00118054 0)
(-0.0115884 -0.000126733 0)
(-0.0135574 0.00180766 0)
(-0.00694575 -0.00225209 0)
(-0.0155469 -0.00193924 0)
(0.00328008 0.000236791 0)
(-0.013765 -0.0147888 0)
(0.00139252 -0.0592297 0)
(-0.00122247 0.0442768 0)
(-0.00421074 0.0277573 0)
(-0.00035194 0.00830411 0)
(-0.00164288 0.00540019 0)
(0.000430153 0.00293228 0)
(-0.00343158 0.00300525 0)
(-0.000820369 0.00245596 0)
(-0.00501097 0.00300621 0)
(-0.00241062 0.00221831 0)
(-0.00593687 0.00327271 0)
(-0.00428614 0.00282569 0)
(-0.00593548 0.0024033 0)
(-0.00639347 0.000999421 0)
(-0.00371617 0.000716057 0)
(-0.00771774 -0.00244808 0)
(-0.00219926 -0.00258463 0)
(-0.0111142 -0.0106613 0)
(-0.00411588 -0.0167162 0)
(-0.0105976 -0.0228501 0)
(0.00222893 -0.0641097 0)
(-0.00205152 0.0440403 0)
(-0.000345853 0.0253012 0)
(-1.50539e-05 0.00800891 0)
(0.000286548 0.00380146 0)
(0.000524346 0.00356891 0)
(-0.00139195 0.00338233 0)
(-0.000985816 0.00274979 0)
(-0.0024958 0.00239559 0)
(-0.00245351 0.00180766 0)
(-0.00254604 0.00123709 0)
(-0.00287839 0.000216093 0)
(-0.00227846 0.000550403 0)
(-0.0050047 -0.000173382 0)
(-0.000786035 0.000579668 0)
(-0.00848773 0.00118794 0)
(-0.00242251 0.00125212 0)
(-0.00945311 0.00248247 0)
(0.00289536 -0.00362358 0)
(-0.00300819 -0.0132958 0)
(0.00335025 -0.06561 0)
(-0.000488529 0.0464828 0)
(-0.00105013 0.0262202 0)
(0.000398136 0.00645912 0)
(-0.000749757 0.00535945 0)
(-0.00151731 0.004136 0)
(-0.00212275 0.00469671 0)
(-0.00256226 0.00350731 0)
(-0.00286301 0.00381011 0)
(-0.00362014 0.00280335 0)
(-0.00290781 0.00271885 0)
(-0.00323696 0.003111 0)
(-0.00252681 0.00337737 0)
(-0.00562047 2.75556e-05 0)
(6.72614e-05 0.0034842 0)
(-0.007027 0.000160738 0)
(0.00135843 -0.00372721 0)
(-0.00753059 -0.0150959 0)
(-0.00043981 -0.0229671 0)
(-0.00568316 -0.0272555 0)
(0.00418931 -0.0671638 0)
(-0.001328 0.0437407 0)
(0.00152069 0.0228753 0)
(8.03109e-05 0.00825659 0)
(0.0003063 0.00499071 0)
(-0.000499751 0.00539252 0)
(-0.000298069 0.00430459 0)
(-0.0021181 0.00410397 0)
(-0.00222897 0.00339267 0)
(-0.00202666 0.00217304 0)
(0.000707934 0.000776709 0)
(-0.0035024 0.000281909 0)
(-0.00208403 0.00354275 0)
(-0.00513223 -0.00228083 0)
(0.00221583 0.000849764 0)
(-0.00759778 0.00126964 0)
(0.00383027 0.000763781 0)
(-0.00680179 0.00667143 0)
(0.00372584 -0.00811021 0)
(-0.00338377 -0.0125299 0)
(0.00507069 -0.06665 0)
(9.79384e-05 0.0474945 0)
(8.20925e-05 0.0268649 0)
(-0.000430306 0.00763631 0)
(-0.00022028 0.00693372 0)
(-0.00226457 0.00427131 0)
(-0.00214018 0.00659395 0)
(-0.00258699 0.00513635 0)
(-0.00261973 0.00311105 0)
(-0.00144018 0.000364651 0)
(-9.44906e-05 0.00385389 0)
(-0.00535515 0.00583204 0)
(-0.0102796 0.00325141 0)
(-0.00723092 -0.00409296 0)
(-0.00259399 0.00668137 0)
(-0.00751415 -0.000810321 0)
(-0.00434549 -0.00546936 0)
(-0.0057985 -0.013437 0)
(0.00467166 -0.0279804 0)
(-0.00762059 -0.0323297 0)
(0.00523802 -0.0687118 0)
(-0.00127703 0.0420529 0)
(0.00207386 0.0215223 0)
(-0.00019794 0.00753579 0)
(-0.000357518 0.00579563 0)
(-0.00058164 0.00708741 0)
(-0.00243493 0.00402954 0)
(0.000113804 0.00459957 0)
(0.00096414 0.00195126 0)
(-0.000168572 -0.000200183 0)
(-0.0050654 0.00435547 0)
(-0.0069244 0.0117353 0)
(-0.00859221 0.00768536 0)
(-0.00290854 -0.0112422 0)
(0.00128426 -0.000223702 0)
(-0.00628828 0.00394821 0)
(0.00177084 -0.00328006 0)
(-0.00460695 -0.00240451 0)
(0.00524688 -0.00665238 0)
(-0.00426567 -0.00917004 0)
(0.00655904 -0.065215 0)
(0.000399816 0.0469015 0)
(0.000104861 0.0281414 0)
(-0.000459726 0.0111045 0)
(0.00153383 0.00879803 0)
(-0.00175783 0.00730519 0)
(-0.00375873 0.00666273 0)
(-0.00454602 0.00267428 0)
(-0.00333697 0.00373534 0)
(-0.00941514 0.00699398 0)
(-0.0103508 0.0103841 0)
(-0.0142492 0.00717524 0)
(-0.0148078 -0.00136579 0)
(-0.00393659 -0.0142668 0)
(-0.004829 0.0109948 0)
(-0.00318496 0.000824314 0)
(0.000704644 -0.00699598 0)
(-0.0074477 -0.0140116 0)
(-0.000862746 -0.0274286 0)
(-0.00740735 -0.0316555 0)
(0.00713686 -0.0705552 0)
(-0.000849572 0.0420098 0)
(0.000479509 0.0204952 0)
(-0.000829903 0.00440135 0)
(-0.00277563 0.0059915 0)
(-0.00696405 0.0111014 0)
(-0.00581822 0.00498818 0)
(-0.00956448 0.00364774 0)
(-0.0119782 0.00554577 0)
(-0.0120223 0.00786312 0)
(-0.00936029 0.0100429 0)
(-0.00566233 0.0153434 0)
(-0.00734622 -0.00023572 0)
(-0.00565525 -0.0239801 0)
(0.00350892 -0.00329252 0)
(0.00237284 -0.00137233 0)
(0.00516197 -0.00145905 0)
(-0.00581816 -0.00291435 0)
(-0.00348901 -0.0116301 0)
(-0.00803278 -0.0212187 0)
(0.00641074 -0.0669791 0)
(0.000602651 0.0455407 0)
(0.000505476 0.0296688 0)
(0.00117477 0.0154952 0)
(-0.00464594 0.0159252 0)
(-0.00549532 0.0126355 0)
(-0.00242828 0.00978024 0)
(-0.0107536 0.00998301 0)
(-0.015379 0.00669919 0)
(-0.017529 0.00549182 0)
(-0.0146231 0.00263108 0)
(-0.00887143 0.00690128 0)
(-0.000400672 -0.00106026 0)
(-0.00657894 -0.0218615 0)
(0.000405826 0.00245437 0)
(-0.00187367 0.00178329 0)
(0.011416 0.000582233 0)
(0.00450182 -0.000724287 0)
(0.0113017 -0.0235005 0)
(-0.00636523 -0.0380489 0)
(0.00732708 -0.0703493 0)
(-2.22435e-05 0.043049 0)
(-0.00105529 0.0207523 0)
(-0.000470084 0.00880136 0)
(-0.00134767 0.0109988 0)
(0.00488441 0.00888734 0)
(0.00285729 0.0080609 0)
(-0.00034048 0.0143181 0)
(-0.00296348 0.0102108 0)
(-0.0095376 0.00866094 0)
(-0.00543575 0.000559211 0)
(-0.0059092 -0.00217581 0)
(-0.000770246 -0.00282477 0)
(0.000950635 -0.0254475 0)
(-0.00319005 -0.0103153 0)
(0.000365804 -0.0119785 0)
(0.00420272 -0.0108829 0)
(-0.00322362 -0.000269071 0)
(0.0120627 -0.0064597 0)
(-0.00599641 -0.014916 0)
(0.00752784 -0.0645915 0)
(-0.000933853 0.0445136 0)
(0.00193198 0.0271327 0)
(-0.00118507 0.0158772 0)
(0.00568852 0.0104944 0)
(0.00290707 0.0101449 0)
(0.00892332 0.0135082 0)
(0.0071978 0.0189512 0)
(0.0114656 0.0146508 0)
(0.00486614 0.0112833 0)
(0.0100297 -0.000236039 0)
(0.00750076 -0.000227325 0)
(0.00608673 -0.00658456 0)
(0.0102316 -0.0162132 0)
(-0.00467067 0.00231529 0)
(0.00933555 -0.00146609 0)
(-0.00628395 0.00302538 0)
(1.73572e-05 -0.00755454 0)
(0.0143705 -0.0192732 0)
(-0.00319067 -0.0323957 0)
(0.00792437 -0.0684731 0)
(0.00121924 0.0434278 0)
(0.000672654 0.0237449 0)
(0.00103054 0.00667366 0)
(0.00204194 0.00499789 0)
(0.00648726 0.00881783 0)
(0.00935369 0.00297447 0)
(0.0110853 0.0130072 0)
(0.0272214 0.0125708 0)
(0.0153732 0.010192 0)
(0.0302122 0.000589951 0)
(0.0198258 -0.00257226 0)
(0.023504 0.000325324 0)
(0.0205105 -0.0186072 0)
(0.0198684 -0.00987066 0)
(0.0243271 -0.0119662 0)
(0.0239546 -0.00353649 0)
(0.0174382 -0.0194606 0)
(0.0159532 -0.00957832 0)
(-0.00721213 -0.00701905 0)
(0.00785296 -0.064682 0)
(-0.000922989 0.0418524 0)
(0.00420452 0.0256062 0)
(0.00114668 0.0148862 0)
(0.00596352 0.0041431 0)
(-0.00528944 0.00385428 0)
(0.0195469 0.00498635 0)
(0.00133288 0.00491469 0)
(0.0365264 0.0047441 0)
(0.0131683 0.01256 0)
(0.0382595 -0.00175662 0)
(0.0177886 0.000594117 0)
(0.0345339 -0.00256329 0)
(0.0218361 -0.0171085 0)
(0.0192822 -0.00385525 0)
(0.0162225 0.0025692 0)
(0.0104415 0.00522655 0)
(-0.00773213 0.00875716 0)
(0.00265055 0.00501707 0)
(-0.00488878 -0.0226625 0)
(0.00625281 -0.0685964 0)
(0.0027565 0.0389887 0)
(0.00312942 0.0211981 0)
(0.00225878 0.0050007 0)
(0.00975021 0.00892171 0)
(0.00414158 -0.00165884 0)
(0.00973975 -0.00732225 0)
(0.0116488 -0.00298617 0)
(0.0201718 0.00189461 0)
(0.0185211 0.00331253 0)
(0.0297271 0.000385143 0)
(0.0214881 -0.00372229 0)
(0.0312712 0.00255632 0)
(0.0120023 -0.00190367 0)
(-0.0182916 -0.00931252 0)
(-0.0042871 3.38024e-05 0)
(-0.00448236 0.0143243 0)
(0.00124023 -0.0153857 0)
(0.0183813 -0.0124603 0)
(-0.000836762 -0.0185786 0)
(0.00537857 -0.0617308 0)
(0.00178852 0.0360251 0)
(0.01161 0.0254046 0)
(0.0118209 0.0116723 0)
(0.00738468 0.00125412 0)
(0.018454 0.00463142 0)
(0.0114807 -0.00433944 0)
(0.0155724 -0.00427674 0)
(0.0156212 -0.00329768 0)
(0.0200684 0.00275119 0)
(0.0225001 -0.0051374 0)
(0.0230058 0.00248723 0)
(0.025881 0.00652248 0)
(0.0336024 0.0204336 0)
(0.0225873 0.0219155 0)
(0.0214515 -0.0128869 0)
(0.0130578 0.00523499 0)
(0.0274448 -0.00942032 0)
(0.00348833 0.00681749 0)
(0.00667831 0.00229383 0)
(0.0114767 -0.0593029 0)
(0.00845858 0.0260996 0)
(0.00863487 0.0162158 0)
(0.0211899 0.00673425 0)
(0.0166678 0.00218973 0)
(0.0114549 -0.00349845 0)
(0.0132413 -0.00471528 0)
(-0.00394649 -0.00541805 0)
(-0.00338794 -0.000854249 0)
(-0.0123834 -0.00514605 0)
(-0.0126032 -0.00569106 0)
(-0.0250879 -0.00937566 0)
(-0.013087 -0.00201938 0)
(-0.0223705 0.00127242 0)
(0.00996058 0.00518192 0)
(-0.00270273 0.00335325 0)
(-0.00571678 0.00538711 0)
(0.0104716 -0.00367263 0)
(-0.0206458 0.00176255 0)
(0.027532 -0.0354109 0)
(0.00919689 -0.0572716 0)
(0.00737659 0.0187122 0)
(0.0331777 0.0129819 0)
(0.0336576 0.00987244 0)
(0.0506657 0.00735118 0)
(0.046156 0.00921522 0)
(0.0556783 0.0073119 0)
(0.0509018 0.0108585 0)
(0.0584668 0.00667095 0)
(0.0557154 0.00961162 0)
(0.0633051 0.00713583 0)
(0.0609961 0.00960934 0)
(0.0634535 0.00217068 0)
(0.0614842 0.00177452 0)
(0.0610299 -0.00379694 0)
(0.0647034 0.00237666 0)
(0.0645642 -0.00333627 0)
(0.0667346 0.000703958 0)
(0.0638373 -0.00332166 0)
(0.0565075 -0.00931357 0)
(0.0306273 -0.00745863 0)
)
;

boundaryField
{
    movingWall
    {
        type            fixedValue;
        value           uniform (1 0 0);
    }
    fixedWalls
    {
        type            noSlip;
    }
    frontAndBack
    {
        type            empty;
    }
}


// ************************************************************************* //
