/*--------------------------------*- C++ -*----------------------------------*\
| =========                 |                                                 |
| \\      /  F ield         | OpenFOAM: The Open Source CFD Toolbox           |
|  \\    /   O peration     | Version:  5.x                                   |
|   \\  /    A nd           | Web:      www.OpenFOAM.org                      |
|    \\/     M anipulation  |                                                 |
\*---------------------------------------------------------------------------*/
FoamFile
{
    version     2.0;
    format      ascii;
    class       surfaceScalarField;
    location    "3.2";
    object      phi;
}
// * * * * * * * * * * * * * * * * * * * * * * * * * * * * * * * * * * * * * //

dimensions      [0 3 -1 0 0 0 0];

internalField   nonuniform List<scalar> 
760
(
-1.11231e-08
1.11231e-08
-2.27673e-08
1.16442e-08
-3.45086e-08
1.17413e-08
-4.63776e-08
1.1869e-08
-5.83807e-08
1.20031e-08
-7.04913e-08
1.21106e-08
-8.26362e-08
1.21448e-08
-9.46774e-08
1.20412e-08
-1.06389e-07
1.17111e-08
-1.17425e-07
1.10361e-08
-1.27288e-07
9.8632e-09
-1.3529e-07
8.00197e-09
-1.4052e-07
5.23029e-09
-1.41848e-07
1.32829e-09
-1.37745e-07
-4.10336e-09
-1.26657e-07
-1.10878e-08
-1.07211e-07
-1.94459e-08
-7.87126e-08
-2.84987e-08
-4.18346e-08
-3.6878e-08
-4.18346e-08
-1.15986e-08
2.27217e-08
-2.37366e-08
2.37822e-08
-3.59713e-08
2.3976e-08
-4.83338e-08
2.42314e-08
-6.08322e-08
2.45016e-08
-7.34448e-08
2.47232e-08
-8.61074e-08
2.48075e-08
-9.86972e-08
2.4631e-08
-1.11008e-07
2.40218e-08
-1.2272e-07
2.27478e-08
-1.3336e-07
2.05041e-08
-1.42263e-07
1.69048e-08
-1.48521e-07
1.14879e-08
-1.50968e-07
3.77521e-09
-1.47992e-07
-7.07916e-09
-1.37703e-07
-2.13764e-08
-1.18233e-07
-3.89166e-08
-8.82221e-08
-5.85092e-08
-4.78901e-08
-7.721e-08
-8.97247e-08
-1.15097e-08
3.42315e-08
-2.35815e-08
3.5854e-08
-3.57759e-08
3.61704e-08
-4.81402e-08
3.65957e-08
-6.07026e-08
3.7064e-08
-7.34679e-08
3.74885e-08
-8.6408e-08
3.77476e-08
-9.94466e-08
3.76695e-08
-1.12438e-07
3.70135e-08
-1.25138e-07
3.54472e-08
-1.37155e-07
3.25218e-08
-1.479e-07
2.76491e-08
-1.56505e-07
2.00937e-08
-1.61749e-07
9.01825e-09
-1.61983e-07
-6.84423e-09
-1.54704e-07
-2.86563e-08
-1.37064e-07
-5.6556e-08
-1.06065e-07
-8.95082e-08
-6.03595e-08
-1.22916e-07
-1.50084e-07
-1.13365e-08
4.5568e-08
-2.32683e-08
4.77857e-08
-3.53617e-08
4.82638e-08
-4.76871e-08
4.89211e-08
-6.02998e-08
4.96767e-08
-7.32412e-08
5.04299e-08
-8.65327e-08
5.10391e-08
-1.00167e-07
5.13039e-08
-1.14091e-07
5.09374e-08
-1.28178e-07
4.9534e-08
-1.42182e-07
4.65259e-08
-1.55668e-07
4.11353e-08
-1.679e-07
3.23257e-08
-1.77671e-07
1.87895e-08
-1.83403e-07
-1.11307e-09
-1.81837e-07
-3.02217e-08
-1.68683e-07
-6.97104e-08
-1.38137e-07
-1.20054e-07
-8.48685e-08
-1.76184e-07
-2.34953e-07
-1.10768e-08
5.66447e-08
-2.27919e-08
5.95009e-08
-3.47171e-08
6.0189e-08
-4.69486e-08
6.11526e-08
-5.95719e-08
6.23e-08
-7.26705e-08
6.35285e-08
-8.63266e-08
6.46953e-08
-1.00619e-07
6.55963e-08
-1.15616e-07
6.59339e-08
-1.31353e-07
6.52712e-08
-1.47799e-07
6.29723e-08
-1.64785e-07
5.81214e-08
-1.81877e-07
4.94175e-08
-1.98149e-07
3.50613e-08
-2.12069e-07
1.2807e-08
-2.2049e-07
-2.18005e-08
-2.1709e-07
-7.31101e-08
-1.92446e-07
-1.44699e-07
-1.32395e-07
-2.36235e-07
-3.67348e-07
-1.07059e-08
6.73507e-08
-2.2105e-08
7.09e-08
-3.37703e-08
7.18543e-08
-4.58226e-08
7.32049e-08
-5.83748e-08
7.48521e-08
-7.15514e-08
7.67052e-08
-8.54985e-08
7.86424e-08
-1.00392e-07
8.04894e-08
-1.1644e-07
8.19821e-08
-1.33884e-07
8.27154e-08
-1.52981e-07
8.20695e-08
-1.73961e-07
7.91013e-08
-1.96925e-07
7.23816e-08
-2.21613e-07
5.97495e-08
-2.46786e-07
3.798e-08
-2.71269e-07
2.68196e-09
-2.86936e-07
-5.74432e-08
-2.81475e-07
-1.50159e-07
-2.27392e-07
-2.90318e-07
-5.9474e-07
-1.01924e-08
7.75431e-08
-2.1151e-08
8.18585e-08
-3.24403e-08
8.31436e-08
-4.41999e-08
8.49645e-08
-5.65574e-08
8.72096e-08
-6.96683e-08
8.98161e-08
-8.37351e-08
9.27092e-08
-9.90274e-08
9.57817e-08
-1.15902e-07
9.88562e-08
-1.34822e-07
1.01635e-07
-1.5638e-07
1.03627e-07
-1.81312e-07
1.04033e-07
-2.10492e-07
1.01562e-07
-2.44865e-07
9.41225e-08
-2.85217e-07
7.83319e-08
-3.31132e-07
4.85973e-08
-3.81087e-07
-7.4888e-09
-4.20029e-07
-1.11217e-07
-4.1667e-07
-2.93677e-07
-1.01141e-06
-9.49555e-09
8.70386e-08
-1.98652e-08
9.22282e-08
-3.06442e-08
9.39227e-08
-4.19793e-08
9.62996e-08
-5.39865e-08
9.92168e-08
-6.68308e-08
1.0266e-07
-8.07512e-08
1.0663e-07
-9.60933e-08
1.11124e-07
-1.13344e-07
1.16107e-07
-1.33182e-07
1.21473e-07
-1.56542e-07
1.26987e-07
-1.84712e-07
1.32204e-07
-2.19478e-07
1.36328e-07
-2.63316e-07
1.37961e-07
-3.19797e-07
1.34813e-07
-3.94627e-07
1.23427e-07
-4.94162e-07
9.20458e-08
-6.07027e-07
1.64866e-09
-7.02741e-07
-1.97963e-07
-1.71415e-06
-8.54421e-09
9.55828e-08
-1.817e-08
1.01854e-07
-2.82947e-08
1.04047e-07
-3.90842e-08
1.07089e-07
-5.05726e-08
1.10705e-07
-6.29105e-08
1.14998e-07
-7.6339e-08
1.20058e-07
-9.12435e-08
1.26028e-07
-1.08192e-07
1.33056e-07
-1.28001e-07
1.41282e-07
-1.51836e-07
1.50822e-07
-1.81385e-07
1.61753e-07
-2.19168e-07
1.74111e-07
-2.69086e-07
1.87878e-07
-3.37353e-07
2.0308e-07
-4.36107e-07
2.22182e-07
-5.89725e-07
2.45663e-07
-7.2194e-07
1.33864e-07
-7.7021e-07
-1.49693e-07
-2.48436e-06
-7.27914e-09
1.02862e-07
-1.59749e-08
1.1055e-07
-2.53141e-08
1.13386e-07
-3.54629e-08
1.17238e-07
-4.6285e-08
1.21527e-07
-5.7872e-08
1.26585e-07
-7.04266e-08
1.32613e-07
-8.43325e-08
1.39934e-07
-1.00184e-07
1.48907e-07
-1.18866e-07
1.59964e-07
-1.41668e-07
1.73624e-07
-1.70448e-07
1.90533e-07
-2.0793e-07
2.11593e-07
-2.5832e-07
2.38269e-07
-3.2732e-07
2.72079e-07
-4.13723e-07
3.08585e-07
-5.46736e-07
3.78676e-07
-5.96063e-07
1.83192e-07
-3.83866e-07
-3.6189e-07
-2.86823e-06
-5.20093e-09
1.08063e-07
-1.31504e-08
1.18499e-07
-2.14204e-08
1.21657e-07
-3.12717e-08
1.27089e-07
-4.12684e-08
1.31524e-07
-5.19125e-08
1.37229e-07
-6.31602e-08
1.4386e-07
-7.54153e-08
1.52189e-07
-8.91665e-08
1.62658e-07
-1.05161e-07
1.75958e-07
-1.2445e-07
1.92914e-07
-1.48536e-07
2.14619e-07
-1.79566e-07
2.42623e-07
-2.20758e-07
2.7946e-07
-2.79403e-07
3.30725e-07
-3.37111e-07
3.66293e-07
-4.02417e-07
4.43982e-07
-4.14709e-07
1.95484e-07
-1.1031e-07
-6.6629e-07
-2.97854e-06
-3.35084e-09
1.11414e-07
-9.80878e-09
1.24957e-07
-1.73606e-08
1.29208e-07
-2.59872e-08
1.35716e-07
-3.51845e-08
1.40721e-07
-4.4764e-08
1.46809e-07
-5.46002e-08
1.53697e-07
-6.48818e-08
1.62471e-07
-7.60775e-08
1.73854e-07
-8.89345e-08
1.88815e-07
-1.04485e-07
2.08464e-07
-1.2387e-07
2.34005e-07
-1.48861e-07
2.67614e-07
-1.75805e-07
3.06404e-07
-2.20022e-07
3.74942e-07
-2.59396e-07
4.05667e-07
-2.91797e-07
4.76383e-07
-3.02905e-07
2.06592e-07
-1.65454e-07
-8.0374e-07
-3.14399e-06
5.81471e-09
1.05599e-07
-1.77145e-09
1.32543e-07
-8.90588e-09
1.36343e-07
-2.14807e-08
1.4829e-07
-3.05684e-08
1.49809e-07
-4.03301e-08
1.56571e-07
-4.75401e-08
1.60907e-07
-5.44611e-08
1.69392e-07
-6.09489e-08
1.80342e-07
-6.7782e-08
1.95648e-07
-7.51208e-08
2.15803e-07
-8.30936e-08
2.41977e-07
-9.51261e-08
2.79646e-07
-1.04388e-07
3.15665e-07
-1.26478e-07
3.97033e-07
-1.53652e-07
4.32841e-07
-1.71533e-07
4.94264e-07
-1.77621e-07
2.1268e-07
-8.09185e-08
-9.00443e-07
-3.22491e-06
-2.69301e-10
1.05868e-07
-2.88124e-09
1.35155e-07
-1.00062e-08
1.43468e-07
-1.51467e-08
1.53431e-07
-2.14989e-08
1.56161e-07
-2.75226e-08
1.62594e-07
-3.33491e-08
1.66733e-07
-3.88519e-08
1.74895e-07
-4.40652e-08
1.85555e-07
-4.86416e-08
2.00225e-07
-5.38995e-08
2.21061e-07
-5.66205e-08
2.44698e-07
-6.49908e-08
2.88017e-07
-6.76432e-08
3.18318e-07
-6.47828e-08
3.94172e-07
-7.34692e-08
4.41527e-07
-2.21254e-08
4.4292e-07
-2.32716e-08
2.13826e-07
9.01926e-08
-1.01391e-06
-3.13472e-06
5.2768e-08
5.31003e-08
3.40232e-08
1.539e-07
1.5095e-08
1.62396e-07
-1.01587e-08
1.78685e-07
-2.55148e-08
1.71517e-07
-3.62807e-08
1.7336e-07
-3.78938e-08
1.68346e-07
-3.82852e-08
1.75286e-07
-3.37489e-08
1.81019e-07
-2.80503e-08
1.94526e-07
-1.88062e-08
2.11817e-07
-7.97548e-09
2.33868e-07
1.31672e-08
2.66874e-07
2.60982e-08
3.05387e-07
6.09532e-08
3.59317e-07
7.17928e-08
4.30688e-07
1.06992e-07
4.07721e-07
6.16214e-08
2.59197e-07
6.49864e-08
-1.01727e-06
-3.06973e-06
2.15251e-08
3.15752e-08
1.49453e-08
1.6048e-07
1.20276e-08
1.65314e-07
5.5176e-09
1.85195e-07
1.67169e-09
1.75363e-07
-3.69028e-09
1.78722e-07
-4.93365e-09
1.69589e-07
-5.85557e-09
1.76208e-07
-5.45706e-09
1.8062e-07
-2.29865e-09
1.91368e-07
3.67151e-09
2.05846e-07
1.1426e-08
2.26113e-07
2.45331e-08
2.53767e-07
3.72101e-08
2.9271e-07
7.2313e-08
3.24214e-07
8.46958e-08
4.18305e-07
1.95725e-07
2.96692e-07
2.13625e-07
2.41297e-07
1.12279e-07
-9.15926e-07
-2.95745e-06
1.40785e-07
-1.0921e-07
2.76474e-08
2.73618e-07
-8.06358e-08
2.73597e-07
-1.166e-07
2.21158e-07
-1.15146e-07
1.7391e-07
-1.08222e-07
1.71797e-07
-8.49151e-08
1.46283e-07
-6.86693e-08
1.59962e-07
-4.61785e-08
1.58129e-07
-2.64521e-08
1.71641e-07
1.36436e-09
1.7803e-07
2.67395e-08
2.00738e-07
6.54164e-08
2.1509e-07
1.14775e-07
2.43351e-07
1.76066e-07
2.62924e-07
2.40339e-07
3.54032e-07
3.54742e-07
1.82288e-07
2.88071e-07
3.07967e-07
2.14991e-07
-8.42845e-07
-2.74246e-06
1.86847e-07
-2.96057e-07
3.5048e-07
1.09985e-07
3.92216e-07
2.31861e-07
3.56005e-07
2.57369e-07
3.49401e-07
1.80514e-07
2.93195e-07
2.28003e-07
2.68285e-07
1.71193e-07
2.33156e-07
1.95091e-07
2.09126e-07
1.82159e-07
1.8866e-07
1.92108e-07
1.89537e-07
1.77152e-07
1.88027e-07
2.02249e-07
2.1093e-07
1.92187e-07
2.45405e-07
2.08876e-07
2.63273e-07
2.45056e-07
2.71148e-07
3.46157e-07
3.71331e-07
8.21049e-08
3.4459e-07
3.34709e-07
3.74713e-07
-8.72969e-07
-2.36775e-06
-6.96739e-07
4.00682e-07
-8.29483e-07
2.42729e-07
-8.28639e-07
2.31017e-07
-7.83771e-07
2.12502e-07
-7.6312e-07
1.59863e-07
-7.25541e-07
1.90424e-07
-7.03218e-07
1.4887e-07
-6.47496e-07
1.39369e-07
-6.14703e-07
1.49366e-07
-5.57492e-07
1.34897e-07
-4.95715e-07
1.15375e-07
-4.31744e-07
1.38277e-07
-3.54263e-07
1.14706e-07
-2.60075e-07
1.14688e-07
-1.40116e-07
1.25096e-07
7.92191e-08
1.26822e-07
2.52049e-07
-9.07251e-08
5.96072e-07
-9.3147e-09
6.61982e-07
-9.38879e-07
-1.70577e-06
4.00682e-07
6.43411e-07
8.74428e-07
1.08693e-06
1.24679e-06
1.43722e-06
1.58609e-06
1.72546e-06
1.87482e-06
2.00972e-06
2.12509e-06
2.26337e-06
2.37808e-06
2.49277e-06
2.61786e-06
2.74468e-06
2.65396e-06
2.64464e-06
1.70577e-06
)
;

boundaryField
{
    movingWall
    {
        type            calculated;
        value           uniform 0;
    }
    fixedWalls
    {
        type            calculated;
        value           uniform 0;
    }
    frontAndBack
    {
        type            empty;
        value           nonuniform 0();
    }
}


// ************************************************************************* //
