/*--------------------------------*- C++ -*----------------------------------*\
| =========                 |                                                 |
| \\      /  F ield         | OpenFOAM: The Open Source CFD Toolbox           |
|  \\    /   O peration     | Version:  5.x                                   |
|   \\  /    A nd           | Web:      www.OpenFOAM.org                      |
|    \\/     M anipulation  |                                                 |
\*---------------------------------------------------------------------------*/
FoamFile
{
    version     2.0;
    format      ascii;
    class       volVectorField;
    location    "3.2";
    object      U;
}
// * * * * * * * * * * * * * * * * * * * * * * * * * * * * * * * * * * * * * //

dimensions      [0 1 -1 0 0 0 0];

internalField   nonuniform List<vector> 
400
(
(-0.00011014 0.000110068 0)
(-0.000338201 0.000115235 0)
(-0.000573597 0.000116226 0)
(-0.000809952 0.000117529 0)
(-0.00104907 0.000118902 0)
(-0.00129064 0.000120011 0)
(-0.00153368 0.00012039 0)
(-0.00177609 0.000119391 0)
(-0.00201426 0.000116125 0)
(-0.00224254 0.000109406 0)
(-0.00245261 9.77036e-05 0)
(-0.00263273 7.91004e-05 0)
(-0.00276702 5.13357e-05 0)
(-0.00283515 1.19837e-05 0)
(-0.00281025 -4.12114e-05 0)
(-0.00266113 -0.000109774 0)
(-0.00235774 -0.000191941 0)
(-0.00187931 -0.000280772 0)
(-0.00121955 -0.000361985 0)
(-0.000422147 -0.000408385 0)
(-0.000114834 0.000337133 0)
(-0.000352627 0.000352872 0)
(-0.000598 0.000355778 0)
(-0.000844239 0.000359608 0)
(-0.00109327 0.00036365 0)
(-0.00134483 0.000366931 0)
(-0.0015981 0.000368062 0)
(-0.0018512 0.000365113 0)
(-0.00210087 0.000355436 0)
(-0.00234189 0.00033548 0)
(-0.00256648 0.000300613 0)
(-0.00276337 0.000245008 0)
(-0.00291698 0.000161712 0)
(-0.00300677 4.31449e-05 0)
(-0.00300482 -0.000117613 0)
(-0.00287588 -0.000326655 0)
(-0.00258158 -0.000580735 0)
(-0.00208933 -0.000862023 0)
(-0.00138227 -0.00112612 0)
(-0.000486998 -0.00128985 0)
(-0.000113859 0.000569055 0)
(-0.000350098 0.000595816 0)
(-0.000594459 0.00060089 0)
(-0.000840273 0.000607655 0)
(-0.00108994 0.000614981 0)
(-0.00134364 0.000621339 0)
(-0.00160118 0.000624553 0)
(-0.00186153 0.000621586 0)
(-0.00212248 0.000608231 0)
(-0.00238016 0.000578747 0)
(-0.00262832 0.000525476 0)
(-0.00285729 0.000438534 0)
(-0.00305276 0.000305712 0)
(-0.00319417 0.000112992 0)
(-0.0032531 -0.000153514 0)
(-0.0031882 -0.000508692 0)
(-0.00294578 -0.000954231 0)
(-0.00246575 -0.00146922 0)
(-0.0017055 -0.00197816 0)
(-0.000626622 -0.002347 0)
(-0.000112001 0.000797247 0)
(-0.000345092 0.000835556 0)
(-0.000587111 0.000843471 0)
(-0.000831457 0.000854249 0)
(-0.0010812 0.000866407 0)
(-0.00133711 0.000878028 0)
(-0.00159987 0.000886398 0)
(-0.00186963 0.000887697 0)
(-0.00214582 0.000876546 0)
(-0.00242666 0.000845422 0)
(-0.00270851 0.000783972 0)
(-0.00298466 0.00067828 0)
(-0.00324367 0.000510246 0)
(-0.0034667 0.000257513 0)
(-0.00362673 -0.000105597 0)
(-0.0036764 -0.000606733 0)
(-0.0035418 -0.00126837 0)
(-0.00311697 -0.00208199 0)
(-0.00232038 -0.0029521 0)
(-0.000916903 -0.00374138 0)
(-0.00010923 0.00102119 0)
(-0.00033754 0.00107181 0)
(-0.000575799 0.00108343 0)
(-0.000817421 0.00109958 0)
(-0.00106626 0.00111852 0)
(-0.00132377 0.00113816 0)
(-0.00159164 0.00115557 0)
(-0.0018715 0.00116659 0)
(-0.00216487 0.00116522 0)
(-0.00247284 0.00114281 0)
(-0.00279556 0.00108705 0)
(-0.00313111 0.000980544 0)
(-0.0034736 0.000799239 0)
(-0.00381008 0.000510764 0)
(-0.00411737 7.32795e-05 0)
(-0.0043509 -0.000558742 0)
(-0.00442084 -0.00145394 0)
(-0.00415797 -0.00264505 0)
(-0.00345194 -0.0040654 0)
(-0.00152921 -0.00578338 0)
(-0.000105292 0.00123886 0)
(-0.000326713 0.00130276 0)
(-0.000559323 0.00131914 0)
(-0.000796423 0.00134221 0)
(-0.00104269 0.00137006 0)
(-0.00130013 0.00140068 0)
(-0.00157152 0.00143135 0)
(-0.00186008 0.00145815 0)
(-0.00216969 0.00147529 0)
(-0.00250493 0.00147407 0)
(-0.00287089 0.00144156 0)
(-0.00327261 0.00135858 0)
(-0.00371365 0.00119687 0)
(-0.00419293 0.000914982 0)
(-0.00469658 0.000453164 0)
(-0.00520397 -0.000271331 0)
(-0.00562817 -0.00137193 0)
(-0.00574764 -0.0029917 0)
(-0.0055293 -0.00521287 0)
(-0.0029219 -0.00901366 0)
(-9.98498e-05 0.00144775 0)
(-0.00031171 0.00152618 0)
(-0.000536308 0.00154852 0)
(-0.000766571 0.00158017 0)
(-0.00100789 0.00161899 0)
(-0.00126258 0.00166339 0)
(-0.00153428 0.00171131 0)
(-0.00182769 0.00175981 0)
(-0.00214909 0.00180428 0)
(-0.00250672 0.00183739 0)
(-0.0029112 0.00184751 0)
(-0.00337599 0.0018164 0)
(-0.00391748 0.00171536 0)
(-0.00455428 0.00149913 0)
(-0.00530467 0.00109604 0)
(-0.00617778 0.000387239 0)
(-0.00714565 -0.000817569 0)
(-0.00804569 -0.00278966 0)
(-0.00920496 -0.00591347 0)
(-0.00615689 -0.0143892 0)
(-9.24411e-05 0.00164455 0)
(-0.000291421 0.0017394 0)
(-0.000505271 0.0017691 0)
(-0.000726038 0.00181106 0)
(-0.000959575 0.00186259 0)
(-0.00120795 0.00192291 0)
(-0.00147525 0.00199116 0)
(-0.00176728 0.00206613 0)
(-0.00209232 0.00214552 0)
(-0.00246193 0.00222498 0)
(-0.00289217 0.00229679 0)
(-0.00340519 0.00234774 0)
(-0.00403165 0.00235558 0)
(-0.0048137 0.00228256 0)
(-0.00581164 0.00206479 0)
(-0.00712484 0.0015915 0)
(-0.00882621 0.000597421 0)
(-0.0108783 -0.00136406 0)
(-0.0147273 -0.00490236 0)
(-0.0109352 -0.0242924 0)
(-8.21447e-05 0.00182548 0)
(-0.000264174 0.00193898 0)
(-0.000464546 0.00197791 0)
(-0.000673194 0.00203181 0)
(-0.000896181 0.00209732 0)
(-0.00113418 0.00217463 0)
(-0.00139126 0.0022647 0)
(-0.00167356 0.00236875 0)
(-0.00199051 0.00248774 0)
(-0.00235576 0.00262162 0)
(-0.00278877 0.0027685 0)
(-0.00331748 0.00292336 0)
(-0.00398287 0.00307618 0)
(-0.00484549 0.00320857 0)
(-0.00599788 0.00329 0)
(-0.00765561 0.00328911 0)
(-0.010076 0.0030936 0)
(-0.012472 0.00136994 0)
(-0.0192062 -0.00300157 0)
(-0.00809333 -0.0432335 0)
(-6.82646e-05 0.00198222 0)
(-0.000228209 0.00212468 0)
(-0.000412318 0.00217348 0)
(-0.000606778 0.00224485 0)
(-0.000816907 0.00232251 0)
(-0.00104077 0.00241584 0)
(-0.00128137 0.00252593 0)
(-0.00154455 0.0026582 0)
(-0.00183984 0.00281738 0)
(-0.00218169 0.00300922 0)
(-0.0025912 0.00324022 0)
(-0.00309887 0.00351829 0)
(-0.00374903 0.00385401 0)
(-0.00460501 0.00426212 0)
(-0.00573838 0.00475913 0)
(-0.00728525 0.00535655 0)
(-0.0100444 0.00633482 0)
(-0.00956715 0.00360056 0)
(-0.0180182 -0.00419928 0)
(0.00569674 -0.0592398 0)
(-4.1441e-05 0.00211748 0)
(-0.000174597 0.00227749 0)
(-0.000344267 0.00234503 0)
(-0.000524338 0.00242093 0)
(-0.000725568 0.00251891 0)
(-0.000931102 0.00262786 0)
(-0.0011493 0.00275901 0)
(-0.00138255 0.00291685 0)
(-0.00164001 0.00311168 0)
(-0.00193352 0.00335381 0)
(-0.00228031 0.00365559 0)
(-0.00270404 0.00403188 0)
(-0.00323894 0.0045047 0)
(-0.00394077 0.00510938 0)
(-0.00489077 0.00592521 0)
(-0.00570502 0.00670294 0)
(-0.00899713 0.00826037 0)
(-0.00506796 0.00390056 0)
(-0.0141654 -0.00936161 0)
(0.0109261 -0.0580892 0)
(-2.4173e-05 0.00217418 0)
(-0.000117861 0.00249567 0)
(-0.00026835 0.00253081 0)
(-0.000433406 0.00272618 0)
(-0.000609222 0.00278514 0)
(-0.000800408 0.0029047 0)
(-0.000992115 0.00301589 0)
(-0.00119196 0.00317309 0)
(-0.00140324 0.00338289 0)
(-0.00163853 0.00366585 0)
(-0.0019146 0.00404016 0)
(-0.00225264 0.00453599 0)
(-0.00267669 0.00519309 0)
(-0.00318671 0.00602179 0)
(-0.00410281 0.00731301 0)
(-0.00398145 0.0080783 0)
(-0.00752475 0.00970874 0)
(-0.00279538 0.00419908 0)
(-0.0108161 -0.0153231 0)
(0.0050388 -0.0589592 0)
(0.000153269 0.00229503 0)
(5.82409e-05 0.00243067 0)
(-0.000115942 0.00258506 0)
(-0.000269548 0.0025752 0)
(-0.00055078 0.00273496 0)
(-0.000702453 0.00284294 0)
(-0.00088358 0.00302439 0)
(-0.00101777 0.00322999 0)
(-0.00114947 0.00348922 0)
(-0.00127881 0.00380482 0)
(-0.00141399 0.00420526 0)
(-0.00155771 0.00470099 0)
(-0.00176708 0.005367 0)
(-0.0018131 0.00605852 0)
(-0.00273967 0.00739142 0)
(-0.00167484 0.00796609 0)
(-0.00533902 0.0092121 0)
(-0.000543252 0.00357656 0)
(-0.00772448 -0.0183093 0)
(0.00514868 -0.0662555 0)
(-2.31453e-05 0.00183912 0)
(5.77011e-06 0.00293637 0)
(-0.000108232 0.00294966 0)
(-0.00028378 0.00354441 0)
(-0.000332835 0.00342252 0)
(-0.000507805 0.00362259 0)
(-0.000600099 0.00358384 0)
(-0.000722905 0.0037111 0)
(-0.000824034 0.00386109 0)
(-0.00091779 0.00414283 0)
(-0.00101166 0.00453765 0)
(-0.00107622 0.00508874 0)
(-0.00129595 0.00597413 0)
(-0.00105507 0.0067648 0)
(-0.00199266 0.00869779 0)
(-0.000125102 0.0096354 0)
(-0.00340272 0.0106373 0)
(0.0028725 0.00517351 0)
(-0.00420701 -0.0187198 0)
(0.00833616 -0.0644888 0)
(0.000982666 0.00254801 0)
(0.00102178 0.00262865 0)
(0.000396261 0.00271154 0)
(0.000163105 0.0023669 0)
(-0.00052362 0.00260776 0)
(-0.000562389 0.00259591 0)
(-0.000813349 0.00284114 0)
(-0.000754008 0.00303063 0)
(-0.00073161 0.00333937 0)
(-0.000621016 0.00365036 0)
(-0.000499192 0.0041151 0)
(-0.000172869 0.00452733 0)
(-0.000212366 0.00529055 0)
(0.000824907 0.00582767 0)
(8.05263e-05 0.00679864 0)
(0.00264091 0.00761557 0)
(-7.72237e-05 0.00697209 0)
(0.00458455 0.00291189 0)
(-0.00248328 -0.0209922 0)
(0.00556864 -0.0610829 0)
(0.000410309 -0.000626209 0)
(0.000315424 0.00313197 0)
(0.000380499 0.00385328 0)
(5.3196e-05 0.00506722 0)
(0.000181656 0.00453377 0)
(-0.000110012 0.00471198 0)
(-5.22608e-05 0.00419831 0)
(-0.000126702 0.00431131 0)
(-0.000126347 0.00418654 0)
(-6.28309e-05 0.00442527 0)
(-5.53043e-05 0.00459561 0)
(0.000223482 0.00508484 0)
(0.000187885 0.00567097 0)
(0.000879864 0.00656618 0)
(0.00049098 0.00794326 0)
(0.00262158 0.0100235 0)
(0.000497335 0.009755 0)
(0.00779024 0.00808588 0)
(-0.000268357 -0.0190954 0)
(0.00560646 -0.0615039 0)
(0.00271419 0.00211725 0)
(0.00265527 0.00397245 0)
(-0.00160084 0.00305289 0)
(-0.00172245 0.00202066 0)
(-0.00271927 0.00213429 0)
(-0.00208455 0.00197404 0)
(-0.00204592 0.00220414 0)
(-0.00148698 0.00232802 0)
(-0.00115794 0.00268294 0)
(-0.000756311 0.0028686 0)
(-0.000273484 0.00334024 0)
(0.000334808 0.00366583 0)
(0.000655503 0.00421411 0)
(0.00211299 0.00496939 0)
(0.00230384 0.00483943 0)
(0.00489619 0.00621799 0)
(0.0047008 0.00160436 0)
(0.00984725 0.00105363 0)
(0.000226923 -0.0192802 0)
(0.0098872 -0.0584797 0)
(0.00018189 -0.00694958 0)
(0.00639224 0.00587375 0)
(0.00860928 0.00735352 0)
(0.00683461 0.00714233 0)
(0.00749435 0.00513669 0)
(0.00632834 0.00539566 0)
(0.00550846 0.0040562 0)
(0.00511919 0.0045173 0)
(0.00417873 0.00404022 0)
(0.00419798 0.00441977 0)
(0.00338717 0.00413925 0)
(0.00410357 0.00470946 0)
(0.00349074 0.00476818 0)
(0.00488405 0.00507098 0)
(0.00475838 0.00608085 0)
(0.00567501 0.00881607 0)
(0.00562261 0.00651048 0)
(0.00845776 0.0120446 0)
(0.0041794 -0.01171 0)
(0.0128194 -0.0520481 0)
(-0.0195902 -0.00370259 0)
(-0.00995378 -0.000965907 0)
(-0.0219862 0.00159295 0)
(-0.0114036 0.00265657 0)
(-0.0191181 0.00175925 0)
(-0.0123463 0.00308993 0)
(-0.0159225 0.00233858 0)
(-0.0127326 0.00274107 0)
(-0.0128009 0.00276535 0)
(-0.0121227 0.00279396 0)
(-0.00986155 0.002513 0)
(-0.0101968 0.00297886 0)
(-0.00710064 0.00251869 0)
(-0.0069739 0.00283974 0)
(-0.0032145 0.0032336 0)
(-0.00278762 0.00396585 0)
(0.00570701 -0.00391144 0)
(0.00538896 -5.25143e-05 0)
(0.0152317 -0.0276176 0)
(0.015638 -0.0493742 0)
(0.0034013 0.0181069 0)
(0.0136014 0.0110441 0)
(0.0116088 0.00833329 0)
(0.0224828 0.00638727 0)
(0.0214679 0.00500779 0)
(0.0280676 0.00510337 0)
(0.0294137 0.00399054 0)
(0.0346356 0.00328771 0)
(0.0338094 0.00364013 0)
(0.0409124 0.00292994 0)
(0.0406988 0.00247923 0)
(0.04292 0.00288526 0)
(0.0483824 0.00233525 0)
(0.0469043 0.00213606 0)
(0.051625 0.00212486 0)
(0.052613 0.00170723 0)
(0.053909 0.000935122 0)
(0.053551 1.68201e-06 0)
(0.0462385 -0.00438439 0)
(0.0306859 -0.00963774 0)
)
;

boundaryField
{
    movingWall
    {
        type            fixedValue;
        value           uniform (1 0 0);
    }
    fixedWalls
    {
        type            noSlip;
    }
    frontAndBack
    {
        type            empty;
    }
}


// ************************************************************************* //
