/*--------------------------------*- C++ -*----------------------------------*\
| =========                 |                                                 |
| \\      /  F ield         | OpenFOAM: The Open Source CFD Toolbox           |
|  \\    /   O peration     | Version:  5.x                                   |
|   \\  /    A nd           | Web:      www.OpenFOAM.org                      |
|    \\/     M anipulation  |                                                 |
\*---------------------------------------------------------------------------*/
FoamFile
{
    version     2.0;
    format      ascii;
    class       surfaceScalarField;
    location    "7.4";
    object      phi;
}
// * * * * * * * * * * * * * * * * * * * * * * * * * * * * * * * * * * * * * //

dimensions      [0 3 -1 0 0 0 0];

internalField   nonuniform List<scalar> 
760
(
-9.60974e-07
9.60974e-07
-1.63155e-06
6.70581e-07
-2.06034e-06
4.2878e-07
-2.58149e-06
5.21151e-07
-2.99959e-06
4.18101e-07
-3.0211e-06
2.15171e-08
-3.09281e-06
7.1702e-08
-3.02143e-06
-7.13719e-08
-2.63883e-06
-3.82602e-07
-2.39989e-06
-2.38937e-07
-2.40197e-06
2.07144e-09
-2.32819e-06
-7.37736e-08
-2.18527e-06
-1.42918e-07
-2.12002e-06
-6.52537e-08
-2.16663e-06
4.66068e-08
-2.1612e-06
-5.42645e-09
-2.10594e-06
-5.52643e-08
-1.83346e-06
-2.72473e-07
-1.25809e-06
-5.7537e-07
-1.25809e-06
-3.83745e-07
1.34472e-06
-1.00778e-06
1.29461e-06
-1.67595e-06
1.09695e-06
-1.95654e-06
8.01742e-07
-2.05056e-06
5.12121e-07
-2.22873e-06
1.99683e-07
-2.14868e-06
-8.34698e-09
-1.94948e-06
-2.70572e-07
-1.86981e-06
-4.6227e-07
-1.66632e-06
-4.42433e-07
-1.32741e-06
-3.36836e-07
-1.09567e-06
-3.05514e-07
-1.01838e-06
-2.20202e-07
-9.5179e-07
-1.31847e-07
-9.37718e-07
3.25354e-08
-9.33183e-07
-9.96184e-09
-1.01342e-06
2.49681e-08
-1.00545e-06
-2.8044e-07
-8.18071e-07
-7.62747e-07
-2.07616e-06
4.27679e-08
1.30195e-06
1.81254e-08
1.31926e-06
-9.81057e-08
1.21319e-06
-2.84402e-07
9.88037e-07
-4.55608e-07
6.83327e-07
-5.71927e-07
3.16002e-07
-5.85058e-07
4.78435e-09
-5.73883e-07
-2.81748e-07
-5.70462e-07
-4.65691e-07
-5.18167e-07
-4.94728e-07
-4.31469e-07
-4.23534e-07
-3.72597e-07
-3.64387e-07
-3.36627e-07
-2.56172e-07
-2.74475e-07
-1.93998e-07
-2.11085e-07
-3.08552e-08
-1.46434e-07
-7.46126e-08
-1.22573e-07
1.10693e-09
-1.53459e-07
-2.49553e-07
-2.68709e-07
-6.47497e-07
-2.34487e-06
1.74923e-07
1.12703e-06
3.49198e-07
1.14498e-06
4.78907e-07
1.08348e-06
5.41261e-07
9.25684e-07
5.48707e-07
6.75881e-07
5.07304e-07
3.57405e-07
4.48628e-07
6.34605e-08
3.55065e-07
-1.88185e-07
2.39223e-07
-3.4985e-07
1.38486e-07
-3.93991e-07
7.13175e-08
-3.56365e-07
1.1506e-08
-3.04575e-07
-3.99018e-08
-2.04764e-07
-6.75358e-08
-1.66364e-07
-7.02005e-08
-2.81905e-08
-5.28668e-08
-9.19463e-08
-3.25322e-08
-1.92277e-08
-6.66843e-08
-2.15401e-07
-1.02512e-07
-6.1167e-07
-2.44739e-06
1.84209e-07
9.42818e-07
3.76509e-07
9.52682e-07
5.59847e-07
9.00138e-07
7.02197e-07
7.83334e-07
7.78922e-07
5.99155e-07
7.71293e-07
3.65034e-07
7.02393e-07
1.32361e-07
5.76925e-07
-6.27172e-08
4.17028e-07
-1.89952e-07
2.69401e-07
-2.46364e-07
1.47699e-07
-2.34663e-07
5.97946e-08
-2.16671e-07
6.71365e-09
-1.51683e-07
-1.91961e-08
-1.40454e-07
-2.51231e-09
-4.48744e-08
8.9861e-10
-9.53572e-08
-5.43767e-10
-1.77853e-08
-1.15167e-08
-2.04428e-07
-2.20252e-08
-6.01161e-07
-2.46941e-06
1.6264e-07
7.80178e-07
3.26727e-07
7.88594e-07
4.85173e-07
7.41692e-07
6.16725e-07
6.51783e-07
6.95778e-07
5.20101e-07
7.06012e-07
3.548e-07
6.52636e-07
1.85737e-07
5.57225e-07
3.26947e-08
4.33778e-07
-6.65058e-08
3.19559e-07
-1.32146e-07
2.15555e-07
-1.30658e-07
1.45827e-07
-1.46943e-07
8.18239e-08
-8.768e-08
4.69019e-08
-1.05532e-07
2.29935e-08
-2.0966e-08
3.28943e-09
-7.56531e-08
-5.74659e-09
-8.74927e-09
-3.39645e-08
-1.7621e-07
-3.45473e-08
-6.00579e-07
-2.50396e-06
1.37982e-07
6.42196e-07
2.73334e-07
6.53242e-07
3.98847e-07
6.16178e-07
5.01094e-07
5.49537e-07
5.66782e-07
4.54413e-07
5.85049e-07
3.36534e-07
5.55886e-07
2.14899e-07
4.90972e-07
9.76083e-08
4.01541e-07
2.29252e-08
3.15665e-07
-4.62694e-08
2.31304e-07
-4.62979e-08
1.70516e-07
-8.61548e-08
1.15126e-07
-3.22895e-08
8.26076e-08
-7.30142e-08
5.28608e-08
8.78088e-09
2.5564e-08
-4.83563e-08
-2.9478e-09
1.97625e-08
-4.1787e-08
-1.37371e-07
-3.8685e-08
-6.03681e-07
-2.54264e-06
1.19143e-07
5.23053e-07
2.26727e-07
5.45658e-07
3.21561e-07
5.21345e-07
3.98538e-07
4.72559e-07
4.47605e-07
4.05346e-07
4.65965e-07
3.18174e-07
4.49176e-07
2.31688e-07
4.0497e-07
1.41814e-07
3.41275e-07
8.6621e-08
2.7869e-07
1.63151e-08
2.12166e-07
2.02263e-08
1.60321e-07
-3.43097e-08
1.09854e-07
1.81774e-08
7.65851e-08
-3.97457e-08
4.5749e-08
3.96171e-08
2.27798e-08
-2.53871e-08
2.20759e-09
4.03347e-08
-2.1403e-08
-1.13761e-07
4.96045e-09
-6.30044e-07
-2.53768e-06
1.05202e-07
4.17852e-07
2.02546e-07
4.48314e-07
2.844e-07
4.3949e-07
3.43201e-07
4.13759e-07
3.80006e-07
3.68541e-07
3.90894e-07
3.07287e-07
3.79127e-07
2.43455e-07
3.50543e-07
1.70398e-07
3.09052e-07
1.28112e-07
2.64392e-07
6.09746e-08
2.17974e-07
6.66443e-08
1.78618e-07
5.04691e-09
1.42812e-07
5.39835e-08
1.11119e-07
-8.05349e-09
8.1479e-08
6.92575e-08
4.34426e-08
1.26493e-08
1.24728e-08
7.13045e-08
-3.00206e-08
-7.12673e-08
-2.78363e-08
-6.32228e-07
-2.56552e-06
1.10201e-07
3.0765e-07
1.7775e-07
3.80765e-07
2.26867e-07
3.90374e-07
2.66631e-07
3.73995e-07
2.92234e-07
3.42938e-07
3.09383e-07
2.90137e-07
3.0573e-07
2.47108e-07
2.87722e-07
1.88406e-07
2.54366e-07
1.61468e-07
2.1584e-07
9.95011e-08
1.7651e-07
1.05974e-07
1.36766e-07
4.47907e-08
1.06433e-07
8.43166e-08
7.29541e-08
2.54253e-08
5.7457e-08
8.47546e-08
4.78378e-08
2.22685e-08
2.73027e-08
9.18397e-08
9.15157e-09
-5.31162e-08
-6.58752e-10
-6.22418e-07
-2.56618e-06
1.15155e-07
1.92495e-07
2.04005e-07
2.91915e-07
2.66948e-07
3.27431e-07
2.90868e-07
3.50075e-07
2.97902e-07
3.35903e-07
2.84094e-07
3.03945e-07
2.66686e-07
2.64517e-07
2.44276e-07
2.10815e-07
2.25244e-07
1.80501e-07
2.00352e-07
1.24392e-07
1.83616e-07
1.22711e-07
1.6041e-07
6.79959e-08
1.48741e-07
9.59862e-08
1.31448e-07
4.27184e-08
1.08745e-07
1.07457e-07
6.75933e-08
6.34206e-08
5.17342e-08
1.07699e-07
-1.4379e-09
5.58729e-11
-1.71499e-08
-6.06706e-07
-2.58333e-06
1.94559e-07
-2.06382e-09
1.8637e-07
3.00104e-07
1.7926e-07
3.34541e-07
1.91883e-07
3.37452e-07
2.12369e-07
3.15417e-07
2.36545e-07
2.7977e-07
2.35935e-07
2.65126e-07
2.23414e-07
2.23336e-07
1.98829e-07
2.05086e-07
1.69687e-07
1.53535e-07
1.39545e-07
1.52853e-07
1.03933e-07
1.03608e-07
7.83539e-08
1.21565e-07
2.56993e-08
9.5373e-08
4.13241e-08
9.1832e-08
7.76533e-10
1.03968e-07
3.44686e-08
7.40067e-08
5.57407e-08
-2.12162e-08
2.1324e-08
-5.72289e-07
-2.562e-06
2.96868e-07
-2.98931e-07
3.02474e-07
2.94498e-07
3.03868e-07
3.33147e-07
2.34117e-07
4.07203e-07
1.79463e-07
3.70071e-07
1.34803e-07
3.2443e-07
1.25359e-07
2.74571e-07
1.15834e-07
2.32861e-07
1.26548e-07
1.94372e-07
1.14468e-07
1.65615e-07
1.28977e-07
1.38344e-07
1.00446e-07
1.32139e-07
1.38722e-07
8.32892e-08
1.22981e-07
1.11114e-07
1.31615e-07
8.31987e-08
1.11375e-07
1.24207e-07
1.02289e-07
8.30935e-08
3.69245e-08
4.4148e-08
-3.18746e-08
-5.0349e-07
-2.59388e-06
3.15895e-07
-6.14826e-07
2.58099e-07
3.52294e-07
3.09829e-07
2.81416e-07
3.89924e-07
3.27109e-07
4.04879e-07
3.55115e-07
3.60065e-07
3.69244e-07
3.09939e-07
3.24696e-07
2.57856e-07
2.84944e-07
2.1867e-07
2.33559e-07
1.78541e-07
2.05743e-07
1.48622e-07
1.68263e-07
1.12368e-07
1.68393e-07
5.44453e-08
1.41212e-07
1.49483e-08
1.50611e-07
-5.89354e-08
1.57082e-07
-1.99871e-07
2.65142e-07
-2.15828e-08
-9.51942e-08
6.68763e-08
-4.43112e-08
3.62997e-08
-4.72914e-07
-2.55758e-06
9.95937e-08
-7.1442e-07
1.41642e-07
3.10246e-07
-1.00816e-07
5.23875e-07
-1.76904e-07
4.03196e-07
-1.96773e-07
3.74985e-07
-1.44058e-07
3.16529e-07
-1.18362e-07
2.99001e-07
-8.40966e-08
2.50678e-07
-5.85904e-08
2.08053e-07
-4.12275e-08
1.8838e-07
-3.36258e-08
1.60661e-07
-5.45563e-08
1.89323e-07
-5.239e-09
9.1895e-08
-1.07086e-07
2.52457e-07
8.15163e-08
-3.15195e-08
1.47921e-07
1.98738e-07
4.54925e-08
7.23391e-09
-4.92373e-08
5.04185e-08
-3.68856e-08
-4.85265e-07
-2.59446e-06
2.26446e-10
-7.14646e-07
1.12739e-07
1.97733e-07
1.73891e-07
4.62722e-07
2.96066e-07
2.81021e-07
3.3316e-07
3.37891e-07
3.63865e-07
2.85825e-07
4.30571e-07
2.32294e-07
4.35806e-07
2.45444e-07
4.56599e-07
1.8726e-07
4.18e-07
2.26979e-07
4.20116e-07
1.58545e-07
3.43487e-07
2.65953e-07
3.83523e-07
5.18594e-08
2.69556e-07
3.66424e-07
1.40479e-07
9.75571e-08
6.78242e-08
2.71393e-07
7.69879e-08
-1.92981e-09
7.28407e-08
5.45657e-08
7.13397e-08
-4.83764e-07
-2.52312e-06
-2.22746e-07
-4.919e-07
-4.87797e-07
4.62784e-07
-3.00079e-07
2.75005e-07
-3.31027e-07
3.11969e-07
-3.0395e-07
3.10813e-07
-2.90274e-07
2.72148e-07
-3.00765e-07
2.42785e-07
-2.78133e-07
2.22812e-07
-3.13665e-07
2.22793e-07
-2.85057e-07
1.9837e-07
-3.06499e-07
1.79986e-07
-2.41328e-07
2.00782e-07
-2.86294e-07
9.68253e-08
-2.29103e-07
3.09234e-07
-1.2652e-07
-5.02576e-09
-2.46597e-07
3.9147e-07
1.4201e-07
-3.90537e-07
1.37052e-07
5.95235e-08
2.364e-08
-3.70352e-07
-2.49948e-06
-4.0483e-08
-4.51417e-07
3.2002e-07
1.02281e-07
2.7033e-07
3.24694e-07
3.07338e-07
2.74961e-07
3.65102e-07
2.5305e-07
4.11107e-07
2.26143e-07
4.5242e-07
2.01472e-07
5.05754e-07
1.69477e-07
5.33247e-07
1.953e-07
5.66102e-07
1.65516e-07
5.76686e-07
1.69402e-07
6.1145e-07
1.66017e-07
6.32756e-07
7.55193e-08
5.35595e-07
4.06395e-07
6.3716e-07
-1.0659e-07
5.88595e-07
4.40035e-07
4.46175e-07
-2.48118e-07
2.04524e-07
3.01175e-07
2.65691e-07
-4.31519e-07
-2.23379e-06
-8.21956e-07
3.70538e-07
-9.56229e-07
2.36555e-07
-9.09687e-07
2.78152e-07
-7.95854e-07
1.61128e-07
-7.18605e-07
1.758e-07
-6.37719e-07
1.45258e-07
-5.91776e-07
1.55528e-07
-5.48669e-07
1.2637e-07
-4.92978e-07
1.39609e-07
-4.47852e-07
1.2039e-07
-3.73277e-07
9.48273e-08
-3.14922e-07
1.07662e-07
-2.97598e-07
5.81957e-08
-8.29829e-08
1.91779e-07
-2.73955e-07
8.43825e-08
2.6841e-08
1.39238e-07
-1.39626e-07
-8.16508e-08
1.89243e-07
-2.76945e-08
6.87839e-07
-9.30114e-07
-1.54595e-06
3.70538e-07
6.07093e-07
8.85245e-07
1.04637e-06
1.22217e-06
1.36743e-06
1.52296e-06
1.64933e-06
1.78894e-06
1.90933e-06
2.00416e-06
2.11182e-06
2.17001e-06
2.36179e-06
2.44618e-06
2.58541e-06
2.50376e-06
2.47607e-06
1.54595e-06
)
;

boundaryField
{
    movingWall
    {
        type            calculated;
        value           uniform 0;
    }
    fixedWalls
    {
        type            calculated;
        value           uniform 0;
    }
    frontAndBack
    {
        type            empty;
        value           nonuniform 0();
    }
}


// ************************************************************************* //
