/*--------------------------------*- C++ -*----------------------------------*\
| =========                 |                                                 |
| \\      /  F ield         | OpenFOAM: The Open Source CFD Toolbox           |
|  \\    /   O peration     | Version:  5.x                                   |
|   \\  /    A nd           | Web:      www.OpenFOAM.org                      |
|    \\/     M anipulation  |                                                 |
\*---------------------------------------------------------------------------*/
FoamFile
{
    version     2.0;
    format      ascii;
    class       volVectorField;
    location    "7.4";
    object      U;
}
// * * * * * * * * * * * * * * * * * * * * * * * * * * * * * * * * * * * * * //

dimensions      [0 1 -1 0 0 0 0];

internalField   nonuniform List<vector> 
400
(
(-0.0103619 0.00959399 0)
(-0.0292516 0.00199574 0)
(-0.0378899 0.00198328 0)
(-0.0454523 0.0144374 0)
(-0.0599176 0.0111106 0)
(-0.0613304 -0.00190959 0)
(-0.0592871 0.00224602 0)
(-0.0645734 0.000540595 0)
(-0.0565219 -0.00951564 0)
(-0.0467122 -0.00347084 0)
(-0.0479823 0.00468537 0)
(-0.0487783 0.00022755 0)
(-0.0447346 -0.00482356 0)
(-0.0421679 -0.0030487 0)
(-0.0436488 -0.000494935 0)
(-0.0443052 -0.00149637 0)
(-0.0438531 -0.00326635 0)
(-0.04032 -0.00614749 0)
(-0.0371364 -0.00993155 0)
(-0.00734333 -0.0180747 0)
(-0.00306822 0.0258484 0)
(-0.0129879 0.0228013 0)
(-0.0275701 0.014744 0)
(-0.038948 0.00707962 0)
(-0.0416932 0.00407237 0)
(-0.0426013 0.00226033 0)
(-0.0442783 1.90248e-05 0)
(-0.0415947 -0.00397307 0)
(-0.0370566 -0.00706331 0)
(-0.035036 -0.00647301 0)
(-0.0303851 -0.00455049 0)
(-0.0238698 -0.00328077 0)
(-0.0209069 -0.00128727 0)
(-0.018895 0.000333266 0)
(-0.0196286 0.0024283 0)
(-0.0175577 0.00118261 0)
(-0.0212684 0.000496276 0)
(-0.01838 -0.0063678 0)
(-0.0246148 -0.0159047 0)
(-0.00412606 -0.0371498 0)
(0.000675853 0.0279399 0)
(0.0010187 0.0282126 0)
(-0.000480681 0.0262717 0)
(-0.00394316 0.0220352 0)
(-0.00784207 0.0150676 0)
(-0.0105398 0.00635458 0)
(-0.0117847 -0.000402567 0)
(-0.0115799 -0.00619757 0)
(-0.0111019 -0.0104972 0)
(-0.0104585 -0.0111815 0)
(-0.00987776 -0.00955455 0)
(-0.00757769 -0.00877387 0)
(-0.00786199 -0.00688601 0)
(-0.00497388 -0.00534769 0)
(-0.00667738 -0.00121527 0)
(-0.00122151 -0.00146258 0)
(-0.00526309 0.000754416 0)
(0.000838024 -0.00384618 0)
(-0.00787529 -0.012791 0)
(-0.00120715 -0.0443043 0)
(0.00174434 0.0248698 0)
(0.00520629 0.0254355 0)
(0.00832273 0.02422 0)
(0.0101945 0.020304 0)
(0.0107689 0.0142743 0)
(0.0105045 0.00725813 0)
(0.00961933 0.000767591 0)
(0.00841335 -0.00462767 0)
(0.00609684 -0.00800078 0)
(0.00418817 -0.00875675 0)
(0.00146391 -0.00782532 0)
(0.00151235 -0.00648768 0)
(-0.00118409 -0.00406166 0)
(-0.000170349 -0.00291869 0)
(-0.00286641 -0.000126891 0)
(0.000388247 -0.00169826 0)
(-0.0028583 -0.000690508 0)
(0.00185779 -0.00566233 0)
(-0.00509238 -0.012751 0)
(0.00178195 -0.0475591 0)
(0.00180954 0.0208957 0)
(0.00549348 0.0211528 0)
(0.00929194 0.0200043 0)
(0.0126224 0.0172413 0)
(0.0148334 0.0129382 0)
(0.0156694 0.0075158 0)
(0.0149223 0.00219787 0)
(0.0132122 -0.00234492 0)
(0.0100849 -0.00523974 0)
(0.00725 -0.00630746 0)
(0.00362175 -0.00587013 0)
(0.00263963 -0.00523101 0)
(-0.000581041 -0.0037464 0)
(0.00097715 -0.00338316 0)
(-0.00195754 -0.00097679 0)
(0.00193419 -0.00194422 0)
(-0.00197017 -0.000178875 0)
(0.00202601 -0.00299742 0)
(-0.00269108 -0.0108881 0)
(0.00208752 -0.0483709 0)
(0.00161063 0.0172609 0)
(0.00482348 0.0173731 0)
(0.0080408 0.0162984 0)
(0.0110274 0.0142218 0)
(0.0131813 0.011053 0)
(0.014223 0.00715917 0)
(0.0137566 0.00323285 0)
(0.0124218 -0.000158683 0)
(0.00993481 -0.00243883 0)
(0.00788392 -0.00365438 0)
(0.00472299 -0.00363129 0)
(0.00435162 -0.00357976 0)
(0.000989766 -0.00240578 0)
(0.00269736 -0.00231127 0)
(-0.00116064 -0.000691309 0)
(0.00232466 -0.0016655 0)
(-0.0022947 -0.000434684 0)
(0.00220419 -0.00489555 0)
(-0.00392722 -0.0129606 0)
(0.00288034 -0.0490418 0)
(0.00137388 0.0142228 0)
(0.00407202 0.0144199 0)
(0.00669313 0.0135145 0)
(0.00901914 0.0118131 0)
(0.0107235 0.00949753 0)
(0.0116702 0.00662498 0)
(0.0115066 0.00383155 0)
(0.010676 0.00129298 0)
(0.00892568 -0.000358707 0)
(0.00748302 -0.00178475 0)
(0.00491078 -0.00169882 0)
(0.00478661 -0.00246171 0)
(0.00154489 -0.00121872 0)
(0.00352533 -0.00212114 0)
(-0.0006564 -0.000245568 0)
(0.00313662 -0.00160554 0)
(-0.00238887 9.4279e-06 0)
(0.00237089 -0.00250947 0)
(-0.00443608 -0.0111036 0)
(0.00321754 -0.0506076 0)
(0.00120375 0.0116085 0)
(0.00347462 0.0118218 0)
(0.00545779 0.011199 0)
(0.00723046 0.0101432 0)
(0.00849254 0.00850859 0)
(0.00924388 0.00663656 0)
(0.00920503 0.00462839 0)
(0.00875456 0.00268828 0)
(0.00733589 0.0013711 0)
(0.00665173 7.65251e-05 0)
(0.00416212 -1.27694e-05 0)
(0.00478116 -0.000748565 0)
(0.0011378 5.42352e-05 0)
(0.00374147 -0.000538546 0)
(-0.00113295 0.00065806 0)
(0.00334262 -0.000100263 0)
(-0.00271652 0.000860687 0)
(0.00290275 -0.00265336 0)
(-0.00405148 -0.0131868 0)
(0.00435837 -0.0513864 0)
(0.00105419 0.0094409 0)
(0.00305748 0.0101759 0)
(0.00492035 0.00976598 0)
(0.00632006 0.00875327 0)
(0.00726193 0.0075329 0)
(0.00781448 0.00580488 0)
(0.0076972 0.00434411 0)
(0.00745719 0.00269977 0)
(0.00646976 0.00184493 0)
(0.00611968 0.000448694 0)
(0.00419728 0.000697609 0)
(0.00491575 -0.000806063 0)
(0.00179619 0.000563785 0)
(0.00437021 -0.00127771 0)
(-0.000380064 0.000782164 0)
(0.00407055 -0.00109695 0)
(-0.00267245 0.000642944 0)
(0.00336149 -0.00223981 0)
(-0.00486824 -0.012133 0)
(0.0040027 -0.0502408 0)
(0.00121332 0.00724195 0)
(0.00304481 0.00765545 0)
(0.00398513 0.00779597 0)
(0.00497395 0.00778286 0)
(0.00558406 0.00722418 0)
(0.0061003 0.00662601 0)
(0.00614514 0.00558505 0)
(0.00619924 0.00438061 0)
(0.0051285 0.00356209 0)
(0.00535344 0.00224714 0)
(0.00293395 0.00221814 0)
(0.00454817 0.00108982 0)
(0.000475286 0.00181477 0)
(0.00424513 0.00107139 0)
(-0.00175535 0.0022131 0)
(0.0044665 0.00173365 0)
(-0.00295485 0.00239006 0)
(0.00436613 -0.000331565 0)
(-0.00418386 -0.0126035 0)
(0.00422199 -0.0521867 0)
(0.00125993 0.00521109 0)
(0.00314788 0.00788036 0)
(0.00493245 0.00800771 0)
(0.00567219 0.00733175 0)
(0.00592091 0.00637072 0)
(0.00593157 0.00469604 0)
(0.00538054 0.00398665 0)
(0.00532226 0.00280082 0)
(0.00436635 0.0025444 0)
(0.00481862 0.00138596 0)
(0.00297441 0.00168717 0)
(0.00468146 0.000441042 0)
(0.00137695 0.00125417 0)
(0.00498785 -0.000266488 0)
(-0.000182545 0.000887356 0)
(0.00500407 -0.00103492 0)
(-0.00272145 0.00104147 0)
(0.00522259 -0.00204418 0)
(-0.00540354 -0.0132842 0)
(0.00498647 -0.0512573 0)
(0.00280878 0.00251458 0)
(0.00452903 0.00350962 0)
(0.00320042 0.00491759 0)
(0.00378808 0.00643229 0)
(0.00398843 0.00718552 0)
(0.00462361 0.00779878 0)
(0.00467922 0.00693715 0)
(0.00493783 0.00603174 0)
(0.00379008 0.00505165 0)
(0.00443 0.00398478 0)
(0.00205915 0.00359045 0)
(0.00386161 0.00261641 0)
(-4.65743e-05 0.0029424 0)
(0.00353033 0.00226939 0)
(-0.00273329 0.00380269 0)
(0.00472395 0.0039361 0)
(-0.00478338 0.00354174 0)
(0.00654115 0.00208244 0)
(-0.00480443 -0.00978188 0)
(0.00592291 -0.0508799 0)
(0.00557597 -0.00257127 0)
(0.00569065 0.00920025 0)
(0.00678016 0.00869051 0)
(0.00542989 0.00743987 0)
(0.00392845 0.00534816 0)
(0.00312809 0.00299287 0)
(0.00237205 0.00323964 0)
(0.00259863 0.00241943 0)
(0.00209174 0.00271283 0)
(0.00303078 0.00169803 0)
(0.00144491 0.0021017 0)
(0.00389089 0.00110249 0)
(-8.18367e-05 0.00149293 0)
(0.00595931 0.00109109 0)
(-0.00144408 -0.000582387 0)
(0.00718745 -0.000271618 0)
(-0.00323309 -0.000829642 0)
(0.00793159 -0.00311291 0)
(-0.00690251 -0.0144536 0)
(0.00602079 -0.0521506 0)
(0.00414373 -0.00972825 0)
(0.00730746 0.00172277 0)
(0.00408575 0.00464602 0)
(0.00752094 0.00840329 0)
(0.00843502 0.00957471 0)
(0.00783585 0.0103718 0)
(0.00645932 0.00813981 0)
(0.0061387 0.00739999 0)
(0.00394089 0.00548245 0)
(0.00503956 0.00540897 0)
(0.00185905 0.00382508 0)
(0.00432982 0.00467588 0)
(-6.63758e-05 0.00218989 0)
(0.00239847 0.00386133 0)
(-0.00185428 0.00444305 0)
(-0.000290938 0.00582078 0)
(-0.00838454 0.00456648 0)
(0.00777959 0.00516271 0)
(-0.00552517 -0.00405444 0)
(0.00721817 -0.0503464 0)
(-0.00582046 -0.0145098 0)
(0.00920043 0.0120661 0)
(-0.00274272 0.00653364 0)
(-0.0017439 0.00484625 0)
(-0.00522559 0.00432165 0)
(-0.00251899 0.00391717 0)
(-0.00303763 0.00454465 0)
(-0.00192555 0.00347805 0)
(-0.00126727 0.00348894 0)
(-0.00122366 0.00229662 0)
(-0.000280864 0.00253669 0)
(-0.00122687 0.00148679 0)
(-0.000717029 0.00310806 0)
(0.00045891 0.00162286 0)
(-0.00495828 0.00104315 0)
(0.00857844 0.00379579 0)
(-0.00338235 -0.00904286 0)
(0.00572901 -0.0072275 0)
(-0.00830783 -0.0167662 0)
(0.0072964 -0.0543192 0)
(-0.00200762 -0.016229 0)
(0.0020572 0.000806843 0)
(0.0026767 0.0138148 0)
(0.00391482 0.0107041 0)
(0.00777314 0.0105166 0)
(0.00611165 0.00910244 0)
(0.00792633 0.00738165 0)
(0.00964076 0.00687807 0)
(0.00740237 0.00498677 0)
(0.011314 0.0056912 0)
(0.00497568 0.00420085 0)
(0.0122744 0.0066706 0)
(0.00122789 0.000737106 0)
(0.0134777 0.00907322 0)
(-0.00212253 -0.00198921 0)
(0.00792074 0.00516115 0)
(-0.00539117 0.0095711 0)
(0.00855767 0.00951711 0)
(-0.00589422 -0.000553238 0)
(0.00905159 -0.0494721 0)
(0.00259201 -0.0097383 0)
(-0.0125879 0.00769133 0)
(-0.00579342 0.00525013 0)
(-0.00555467 0.00122271 0)
(-0.00852334 0.00333559 0)
(-0.00291921 0.00254874 0)
(-0.00921153 0.00216108 0)
(-0.00259851 0.00275994 0)
(-0.00848977 0.00249117 0)
(-0.00422096 0.00291843 0)
(-0.00710336 0.00174545 0)
(-0.00536845 0.00329648 0)
(-0.00374089 0.00119851 0)
(-0.00865961 0.0046852 0)
(0.000517048 0.00562802 0)
(-0.00615995 0.00469322 0)
(-0.00454021 -0.00984731 0)
(0.011284 -0.00761659 0)
(-0.00705926 -0.0211688 0)
(0.00850643 -0.0524345 0)
(-0.00894487 -0.0114593 0)
(0.00671756 0.00932298 0)
(0.00753861 0.00587464 0)
(0.00334619 0.0108082 0)
(0.00820871 0.00873453 0)
(0.00714367 0.00816026 0)
(0.00863062 0.00723243 0)
(0.0100162 0.00632128 0)
(0.00964971 0.00638709 0)
(0.0121355 0.00540852 0)
(0.0102453 0.0059816 0)
(0.0131159 0.00520796 0)
(0.0110998 0.00303606 0)
(0.0140395 0.00846865 0)
(0.00825409 -0.0058952 0)
(0.0156468 0.0109901 0)
(0.00890071 -0.00457039 0)
(0.00991434 0.0105121 0)
(-0.00247315 0.00852644 0)
(0.014147 -0.0483474 0)
(-0.0215425 -0.00508875 0)
(-0.0134458 -0.00457496 0)
(-0.0235846 0.00627407 0)
(-0.0117374 -4.80603e-05 0)
(-0.0198619 0.00173317 0)
(-0.00907145 0.000817237 0)
(-0.0166627 0.00118485 0)
(-0.00685207 0.000412142 0)
(-0.0155676 0.00124684 0)
(-0.00354842 0.000943457 0)
(-0.0152282 0.000199973 0)
(0.00138739 0.00136164 0)
(-0.0151626 -0.00055047 0)
(0.00438311 0.00719638 0)
(-0.00798696 0.00142679 0)
(-0.00408207 0.00585605 0)
(0.0055934 -0.00480949 0)
(-0.0121659 -0.000358151 0)
(0.0188499 -0.0286876 0)
(0.0121662 -0.0472183 0)
(0.00156058 0.0182807 0)
(0.0139943 0.0138105 0)
(0.01134 0.0058958 0)
(0.022034 0.0063524 0)
(0.021712 0.00544963 0)
(0.0262116 0.00512819 0)
(0.0284819 0.00482954 0)
(0.0318873 0.00457398 0)
(0.0345151 0.00456633 0)
(0.0366393 0.00405869 0)
(0.039554 0.00402106 0)
(0.0406755 0.00296066 0)
(0.0444544 0.00339018 0)
(0.0436973 0.000975886 0)
(0.0489565 0.0022991 0)
(0.0478849 0.000419011 0)
(0.0522958 0.00116505 0)
(0.0495508 -0.000129223 0)
(0.044052 -0.00358413 0)
(0.0256083 -0.00610525 0)
)
;

boundaryField
{
    movingWall
    {
        type            fixedValue;
        value           uniform (1 0 0);
    }
    fixedWalls
    {
        type            noSlip;
    }
    frontAndBack
    {
        type            empty;
    }
}


// ************************************************************************* //
