/*--------------------------------*- C++ -*----------------------------------*\
| =========                 |                                                 |
| \\      /  F ield         | OpenFOAM: The Open Source CFD Toolbox           |
|  \\    /   O peration     | Version:  5.x                                   |
|   \\  /    A nd           | Web:      www.OpenFOAM.org                      |
|    \\/     M anipulation  |                                                 |
\*---------------------------------------------------------------------------*/
FoamFile
{
    version     2.0;
    format      ascii;
    class       volScalarField;
    location    "16.3";
    object      p;
}
// * * * * * * * * * * * * * * * * * * * * * * * * * * * * * * * * * * * * * //

dimensions      [0 2 -2 0 0 0 0];

internalField   nonuniform List<scalar> 
400
(
-1.02669e-10
-0.000555789
-0.000985383
-0.00127642
-0.00142485
-0.00151276
-0.00154806
-0.00156863
-0.00155957
-0.00155357
-0.00153407
-0.0015242
-0.00151794
-0.00150912
-0.00149616
-0.00140184
-0.00119913
-0.000878004
-0.000542995
0.00097249
-0.000613382
-0.00100439
-0.00127997
-0.00142595
-0.00149822
-0.0015534
-0.00156308
-0.00157782
-0.00157598
-0.00155123
-0.00155683
-0.00152681
-0.00154097
-0.00153932
-0.00155216
-0.00153395
-0.00146823
-0.00137932
-0.00124844
-0.000184062
-0.00101782
-0.0013012
-0.00140862
-0.00149136
-0.00151411
-0.00154047
-0.00155315
-0.00155581
-0.00155797
-0.0015443
-0.00154573
-0.00153479
-0.00154262
-0.00153286
-0.00154927
-0.00148928
-0.00151256
-0.00144613
-0.00139298
-0.00093674
-0.00125038
-0.00142413
-0.0014584
-0.00149303
-0.00150836
-0.00152933
-0.00154397
-0.00155075
-0.00155956
-0.00155393
-0.00155525
-0.00154358
-0.00155019
-0.00154746
-0.00156294
-0.00155471
-0.00155642
-0.00149045
-0.0015658
-0.00134796
-0.00137174
-0.00145603
-0.00146225
-0.00149066
-0.00150335
-0.00152424
-0.00153687
-0.00154407
-0.00155485
-0.00154771
-0.00155405
-0.0015411
-0.00154912
-0.00155006
-0.00156891
-0.0015427
-0.00158376
-0.00152122
-0.00155279
-0.00145
-0.0014129
-0.00145165
-0.00147165
-0.00148601
-0.00150468
-0.00152138
-0.00153751
-0.00154707
-0.00155781
-0.00155648
-0.00155722
-0.00155466
-0.00155043
-0.00155176
-0.00158271
-0.00155555
-0.00161504
-0.0015321
-0.00160511
-0.00151817
-0.00144293
-0.00146728
-0.00147628
-0.00149268
-0.00150272
-0.00152252
-0.00153754
-0.0015507
-0.0015642
-0.00156028
-0.00155174
-0.00153577
-0.00153975
-0.00156616
-0.00158008
-0.00155821
-0.00162499
-0.00155201
-0.00157345
-0.00154758
-0.00145736
-0.0014628
-0.00146951
-0.00148386
-0.00150059
-0.00151967
-0.00154313
-0.00156302
-0.00157956
-0.00157718
-0.00158632
-0.00158135
-0.00154226
-0.00155445
-0.00158937
-0.00156554
-0.0016023
-0.0015699
-0.0016268
-0.00155131
-0.00145114
-0.00147152
-0.00147672
-0.00149587
-0.00150572
-0.00152396
-0.00155428
-0.00158114
-0.00160483
-0.00160135
-0.00158793
-0.00158542
-0.00157468
-0.00160525
-0.00163838
-0.00159673
-0.00161095
-0.0015665
-0.0015961
-0.00154201
-0.00145065
-0.00145524
-0.0014532
-0.00147496
-0.00148557
-0.00149868
-0.00154522
-0.00158771
-0.00163068
-0.00164901
-0.00166194
-0.0016637
-0.00162327
-0.00161953
-0.00162687
-0.00159683
-0.00160794
-0.00157591
-0.00158391
-0.00160974
-0.00144223
-0.0014565
-0.00146681
-0.00147973
-0.00150396
-0.00151409
-0.00156381
-0.00161693
-0.00166739
-0.00169026
-0.00173802
-0.00174936
-0.00173664
-0.00164282
-0.00171344
-0.00164328
-0.00180027
-0.00169976
-0.00170522
-0.00164865
-0.00144322
-0.0014599
-0.00145365
-0.00146424
-0.00150212
-0.00149084
-0.00154186
-0.00163283
-0.00171786
-0.00173053
-0.00172328
-0.00180299
-0.00175838
-0.00157036
-0.00165561
-0.00159081
-0.00168841
-0.00160835
-0.00165972
-0.00157793
-0.0014354
-0.00141931
-0.00145062
-0.00144519
-0.00151226
-0.00147276
-0.00158164
-0.00166764
-0.00180829
-0.00182703
-0.001743
-0.00188397
-0.0017424
-0.00156894
-0.0016871
-0.00156681
-0.0016107
-0.00154488
-0.00155442
-0.00148429
-0.00142566
-0.00143521
-0.0014611
-0.00142632
-0.00150373
-0.00146463
-0.00156528
-0.0016744
-0.00183023
-0.0019089
-0.00175446
-0.00191273
-0.00168942
-0.00156821
-0.00158138
-0.00154747
-0.00160647
-0.00143178
-0.00146515
-0.00141899
-0.00140534
-0.00141788
-0.00145236
-0.00140976
-0.00147694
-0.00140715
-0.00152913
-0.00159486
-0.00176031
-0.00183795
-0.00172885
-0.00181241
-0.00163955
-0.00155685
-0.00166185
-0.0015839
-0.00160148
-0.00141594
-0.00136542
-0.00141831
-0.00133234
-0.00137281
-0.00141917
-0.00137715
-0.00148532
-0.00137871
-0.00146484
-0.00155719
-0.00161052
-0.00171556
-0.00166859
-0.00170661
-0.0016057
-0.00154422
-0.00162469
-0.00139833
-0.00136526
-0.0014114
-0.00128899
-0.00138082
-0.00122283
-0.00131263
-0.00141426
-0.00140303
-0.00142877
-0.00142022
-0.00145982
-0.00151157
-0.00157297
-0.00164257
-0.0016587
-0.00156592
-0.00135994
-0.00189136
-0.00167436
-0.00161729
-0.00155563
-0.001475
-0.00153012
-0.00117365
-0.00104238
-0.00123463
-0.00131404
-0.00137027
-0.00142768
-0.00141351
-0.00145489
-0.00153367
-0.00155079
-0.0016171
-0.00170724
-0.00184798
-0.00173925
-0.00158656
-0.00141544
-0.00142879
-0.00144635
-0.00121248
-0.000985326
-0.000796774
-0.000773676
-0.000994251
-0.00123624
-0.00128971
-0.00134113
-0.00132199
-0.0013956
-0.00154458
-0.00160597
-0.00175835
-0.00196643
-0.0019529
-0.00178013
-0.00126707
-0.0013166
-0.00151056
-0.00134675
-0.00162749
-0.00134312
-0.000373627
-0.000493689
-0.000732619
-0.00105249
-0.00127672
-0.00139282
-0.00144193
-0.00145452
-0.00153177
-0.00163679
-0.00173972
-0.00170117
-0.00156034
-0.00139574
-0.0013007
-0.00133392
-0.00142401
-0.00136205
-0.00101318
-0.000362509
0.00156631
)
;

boundaryField
{
    movingWall
    {
        type            zeroGradient;
    }
    fixedWalls
    {
        type            zeroGradient;
    }
    frontAndBack
    {
        type            empty;
    }
}


// ************************************************************************* //
