/*--------------------------------*- C++ -*----------------------------------*\
| =========                 |                                                 |
| \\      /  F ield         | OpenFOAM: The Open Source CFD Toolbox           |
|  \\    /   O peration     | Version:  5.x                                   |
|   \\  /    A nd           | Web:      www.OpenFOAM.org                      |
|    \\/     M anipulation  |                                                 |
\*---------------------------------------------------------------------------*/
FoamFile
{
    version     2.0;
    format      ascii;
    class       surfaceScalarField;
    location    "16.3";
    object      phi;
}
// * * * * * * * * * * * * * * * * * * * * * * * * * * * * * * * * * * * * * //

dimensions      [0 3 -1 0 0 0 0];

internalField   nonuniform List<scalar> 
760
(
-1.13811e-06
1.13811e-06
-1.9803e-06
8.42188e-07
-2.37894e-06
3.98638e-07
-2.65023e-06
2.71292e-07
-2.75335e-06
1.03121e-07
-2.86313e-06
1.09778e-07
-2.8749e-06
1.17677e-08
-2.92726e-06
5.23584e-08
-2.90288e-06
-2.4374e-08
-2.92396e-06
2.10753e-08
-2.91743e-06
-6.52454e-09
-2.92562e-06
8.18512e-09
-2.93103e-06
5.41522e-09
-2.91595e-06
-1.50801e-08
-2.91327e-06
-2.68281e-09
-2.85922e-06
-5.40524e-08
-2.77977e-06
-7.94467e-08
-2.38144e-06
-3.98332e-07
-1.59662e-06
-7.84824e-07
-1.59662e-06
-6.51291e-07
1.7894e-06
-1.02138e-06
1.21228e-06
-1.16123e-06
5.38485e-07
-1.1895e-06
2.9956e-07
-1.20429e-06
1.17913e-07
-1.21976e-06
1.25251e-07
-1.24235e-06
3.43494e-08
-1.24256e-06
5.25744e-08
-1.26251e-06
-4.42317e-09
-1.25419e-06
1.27508e-08
-1.25429e-06
-6.42077e-09
-1.26185e-06
1.57442e-08
-1.30384e-06
4.74081e-08
-1.33804e-06
1.91156e-08
-1.38301e-06
4.22906e-08
-1.35285e-06
-8.42188e-08
-1.35023e-06
-8.20643e-08
-1.43375e-06
-3.14814e-07
-1.15948e-06
-1.05909e-06
-2.75609e-06
-3.08371e-07
2.09778e-06
-4.13684e-07
1.31759e-06
-3.6752e-07
4.92321e-07
-3.18387e-07
2.50427e-07
-3.2004e-07
1.19566e-07
-3.15651e-07
1.20863e-07
-3.51495e-07
7.01935e-08
-3.9108e-07
9.21597e-08
-4.47336e-07
5.18326e-08
-5.06123e-07
7.15381e-08
-5.66843e-07
5.42985e-08
-5.93416e-07
4.23178e-08
-6.07671e-07
6.16628e-08
-6.09429e-07
2.08736e-08
-5.50794e-07
-1.63443e-08
-5.26353e-07
-1.0866e-07
-3.10214e-07
-2.98203e-07
-2.07985e-07
-4.17043e-07
-3.57878e-07
-9.09201e-07
-3.11397e-06
-1.14858e-07
2.21263e-06
-1.2543e-07
1.32816e-06
-4.30495e-08
4.09941e-07
-2.57418e-08
2.33119e-07
-6.2058e-08
1.55882e-07
-9.64321e-08
1.55237e-07
-1.47407e-07
1.21168e-07
-1.80662e-07
1.25415e-07
-2.23928e-07
9.5099e-08
-2.59207e-07
1.06816e-07
-2.77599e-07
7.26912e-08
-3.04136e-07
6.88541e-08
-2.6136e-07
1.88869e-08
-2.71751e-07
3.12649e-08
-2.61635e-07
-2.64604e-08
-3.31763e-07
-3.85321e-08
-4.09003e-07
-2.20963e-07
-2.94412e-07
-5.31634e-07
-2.29444e-07
-9.74169e-07
-3.34341e-06
-3.80959e-08
2.25073e-06
-1.86116e-09
1.29193e-06
2.60168e-08
3.82063e-07
3.63026e-08
2.22833e-07
-2.55836e-09
1.94743e-07
-4.50778e-08
1.97756e-07
-8.08894e-08
1.56979e-07
-1.13023e-07
1.57549e-07
-1.3256e-07
1.14636e-07
-1.3267e-07
1.06927e-07
-1.44332e-07
8.43533e-08
-1.76344e-07
1.00866e-07
-1.51604e-07
-5.85328e-09
-2.22963e-07
1.02624e-07
-2.90329e-07
4.09057e-08
-2.67467e-07
-6.13937e-08
-1.72689e-07
-3.15742e-07
1.84925e-08
-7.22816e-07
1.9126e-08
-9.74802e-07
-3.32429e-06
-2.63347e-08
2.27706e-06
-6.16406e-09
1.27176e-06
6.08188e-09
3.69817e-07
-3.76133e-08
2.66528e-07
-7.39586e-08
2.31089e-07
-9.99757e-08
2.23773e-07
-1.27571e-07
1.84575e-07
-1.50026e-07
1.80005e-07
-1.6741e-07
1.32019e-07
-1.51525e-07
9.10418e-08
-1.52021e-07
8.48493e-08
-2.07435e-07
1.5628e-07
-1.40757e-07
-7.25309e-08
-1.55352e-07
1.17218e-07
-1.45758e-07
3.13121e-08
-1.246e-07
-8.25522e-08
-2.18442e-07
-2.21899e-07
-1.2736e-07
-8.13897e-07
-4.66447e-08
-1.05552e-06
-3.37093e-06
7.83421e-09
2.26923e-06
4.52743e-08
1.23432e-06
2.50615e-08
3.9003e-07
7.75047e-09
2.83839e-07
-2.25308e-09
2.41092e-07
-4.62928e-08
2.67813e-07
-9.68294e-08
2.35111e-07
-9.24588e-08
1.75634e-07
-3.8551e-08
7.81114e-08
-7.77263e-08
1.30217e-07
-1.50868e-07
1.57991e-07
-1.68988e-07
1.744e-07
-5.49932e-08
-1.86526e-07
-1.22465e-07
1.8469e-07
-9.87701e-08
7.61688e-09
-5.04892e-08
-1.30833e-07
-7.64914e-08
-1.95897e-07
1.54642e-08
-9.05853e-07
3.52303e-08
-1.07528e-06
-3.3357e-06
4.42894e-09
2.2648e-06
-4.42388e-09
1.24317e-06
-1.92428e-09
3.8753e-07
-4.58025e-08
3.27717e-07
-8.93704e-08
2.8466e-07
-9.37379e-08
2.72181e-07
-1.15647e-07
2.57021e-07
-8.47959e-08
1.44783e-07
-3.39794e-08
2.72949e-08
-1.36168e-07
2.32405e-07
-4.00959e-07
4.22782e-07
-4.52406e-07
2.25847e-07
-2.12311e-07
-4.2662e-07
-2.24676e-07
1.97055e-07
-3.06946e-07
8.9887e-08
-2.21293e-07
-2.16486e-07
-2.36553e-08
-3.93535e-07
-5.83674e-08
-8.71141e-07
-6.88772e-08
-1.06477e-06
-3.40458e-06
3.08843e-08
2.23392e-06
5.32768e-08
1.22078e-06
-2.22851e-09
4.43036e-07
-1.61088e-08
3.41598e-07
-5.69752e-08
3.25526e-07
-2.6292e-08
2.41497e-07
5.46325e-08
1.76096e-07
4.72453e-08
1.5217e-07
-1.19836e-07
1.94376e-07
-2.92344e-07
4.04913e-07
-3.67724e-07
4.98161e-07
-2.82424e-07
1.40548e-07
-5.70723e-09
-7.03337e-07
-1.00445e-07
2.91793e-07
-1.28135e-07
1.17577e-07
-7.27862e-08
-2.71834e-07
-3.61479e-08
-4.30173e-07
-9.39949e-09
-8.97889e-07
4.85202e-08
-1.12269e-06
-3.35606e-06
2.05706e-08
2.21335e-06
5.64732e-09
1.2357e-06
4.87945e-08
3.99888e-07
2.2751e-08
3.67641e-07
-1.07923e-07
4.562e-07
-1.50427e-07
2.84002e-07
-1.40728e-07
1.66397e-07
-2.64215e-07
2.75657e-07
-4.90981e-07
4.21142e-07
-6.36743e-07
5.50676e-07
-6.99053e-07
5.60471e-07
-4.76621e-07
-8.18842e-08
-2.25704e-07
-9.54254e-07
-1.90866e-07
2.56955e-07
-8.04634e-08
7.17432e-09
-1.67395e-07
-1.84903e-07
-2.70074e-07
-3.27494e-07
-2.50923e-07
-9.1704e-07
-2.22316e-08
-1.35138e-06
-3.37829e-06
-2.34868e-09
2.21569e-06
-5.42275e-09
1.23878e-06
-7.12061e-08
4.65672e-07
-2.02103e-07
4.98538e-07
-3.08781e-07
5.62878e-07
-3.43655e-07
3.18876e-07
-4.68644e-07
2.91386e-07
-5.06559e-07
3.13573e-07
-4.81747e-07
3.9633e-07
-3.32143e-07
4.01072e-07
-3.24707e-07
5.53035e-07
-3.44585e-07
-6.20064e-08
-1.13094e-07
-1.18574e-06
1.60096e-07
-1.62355e-08
1.79179e-07
-1.19088e-08
5.09036e-08
-5.66279e-08
-1.99473e-07
-7.71166e-08
-2.2534e-07
-8.91174e-07
-5.50578e-08
-1.52167e-06
-3.43335e-06
3.59574e-08
2.17974e-06
4.73309e-08
1.2274e-06
-8.8818e-08
6.01821e-07
-2.56995e-07
6.66715e-07
-2.5582e-07
5.61703e-07
-3.5699e-07
4.20046e-07
-6.49288e-07
5.83684e-07
-7.59966e-07
4.24251e-07
-7.69144e-07
4.05509e-07
-5.37788e-07
1.69716e-07
-1.57181e-07
1.72428e-07
-1.66706e-07
-5.24822e-08
-2.20353e-07
-1.1321e-06
-4.98142e-08
-1.86775e-07
2.03414e-07
-2.65137e-07
4.4871e-07
-3.01925e-07
4.23758e-07
-5.21648e-08
2.40666e-07
-7.08081e-07
3.63524e-08
-1.31735e-06
-3.397e-06
-2.12661e-08
2.201e-06
-2.28886e-08
1.22903e-06
-5.79042e-08
6.36836e-07
6.30674e-08
5.45743e-07
1.44694e-07
4.80077e-07
5.36288e-08
5.11111e-07
-1.29743e-07
7.67055e-07
-3.21123e-07
6.15632e-07
-4.2118e-07
5.05566e-07
-3.20261e-07
6.87957e-08
-1.12018e-07
-3.58145e-08
1.81238e-08
-1.82624e-07
-8.05567e-08
-1.03342e-06
-5.19648e-08
-2.15366e-07
7.49994e-08
-3.92101e-07
-1.76391e-08
-2.09286e-07
1.78563e-07
-2.48367e-07
1.76208e-07
-7.05726e-07
3.1616e-08
-1.17276e-06
-3.36538e-06
1.47932e-08
2.18621e-06
1.03012e-08
1.23352e-06
8.72543e-08
5.59883e-07
2.37969e-07
3.95029e-07
2.62357e-07
4.55689e-07
4.30341e-07
3.43127e-07
4.34237e-07
7.63159e-07
4.07159e-07
6.4271e-07
3.55736e-07
5.56989e-07
3.70102e-07
5.44295e-08
4.14617e-07
-8.03299e-08
3.6353e-07
-1.31537e-07
1.43942e-07
-8.13828e-07
1.67955e-07
-2.3938e-07
1.02866e-07
-3.27011e-07
-1.07587e-07
1.16671e-09
3.15953e-07
-6.71907e-07
3.09197e-07
-6.9897e-07
1.06453e-07
-9.70018e-07
-3.25893e-06
4.53101e-08
2.1409e-06
3.53299e-08
1.2435e-06
5.89801e-08
5.36233e-07
2.43828e-07
2.10181e-07
3.53828e-07
3.45688e-07
5.30428e-07
1.66528e-07
8.74894e-07
4.18693e-07
1.1159e-06
4.017e-07
1.13796e-06
5.34938e-07
1.16772e-06
2.46682e-08
1.18062e-06
-9.32368e-08
1.02273e-06
2.6356e-08
9.99099e-07
-7.90196e-07
1.17902e-06
-4.193e-07
1.15005e-06
-2.98046e-07
1.14217e-06
9.05287e-09
7.74052e-07
-3.03791e-07
2.09544e-07
-1.34462e-07
1.87239e-08
-7.79197e-07
-3.2402e-06
8.87728e-08
2.05213e-06
1.48582e-07
1.18369e-06
1.54951e-07
5.29863e-07
5.68675e-09
3.59445e-07
2.94843e-07
5.65317e-08
5.05302e-07
-4.39314e-08
8.95099e-07
2.88961e-08
1.22788e-06
6.89143e-08
1.33935e-06
4.23472e-07
1.34979e-06
1.42309e-08
1.35542e-06
-9.88672e-08
1.33788e-06
4.38957e-08
1.05073e-06
-5.03044e-07
9.25483e-07
-2.94057e-07
5.92023e-07
3.54131e-08
6.12421e-08
5.39834e-07
-1.3159e-07
-1.10959e-07
-6.54778e-08
-2.00575e-07
5.09811e-08
-8.95656e-07
-3.18922e-06
1.58267e-07
1.89386e-06
1.42977e-07
1.19898e-06
2.67678e-07
4.05163e-07
3.60597e-07
2.66526e-07
3.20594e-07
9.65341e-08
5.33381e-07
-2.56718e-07
7.81791e-07
-2.19514e-07
9.4077e-07
-9.00648e-08
1.19835e-06
1.65892e-07
1.29989e-06
-8.73059e-08
1.2274e-06
-2.63764e-08
1.01125e-06
2.60046e-07
-4.3619e-08
5.51822e-07
-6.09573e-07
2.71896e-07
-1.91697e-07
-3.82462e-07
-7.5975e-08
4.24111e-07
4.81554e-07
-6.68487e-07
5.02132e-07
-2.21154e-07
8.97754e-08
-4.83299e-07
-3.09945e-06
3.69886e-07
1.52397e-06
5.76044e-07
9.92821e-07
4.74601e-07
5.06606e-07
6.56454e-07
8.4673e-08
7.28966e-07
2.40222e-08
7.09176e-07
-2.36928e-07
7.84586e-07
-2.94924e-07
8.32872e-07
-1.38351e-07
1.03373e-06
-3.49709e-08
1.15247e-06
-2.06037e-07
1.24933e-06
-1.23243e-07
1.41716e-06
9.22232e-08
1.44489e-06
5.24086e-07
1.07337e-06
6.43423e-07
9.00913e-07
-2.1001e-07
1.02746e-06
2.97569e-07
7.18013e-07
-3.59045e-07
2.03549e-07
2.93311e-07
4.02758e-07
-6.82509e-07
-2.69669e-06
4.69403e-07
1.05457e-06
7.88842e-07
6.73382e-07
9.15593e-07
3.79855e-07
7.41266e-07
2.59e-07
5.92719e-07
1.72569e-07
2.6743e-07
8.83608e-08
-1.79385e-07
1.51891e-07
-4.59503e-07
1.41767e-07
-6.15659e-07
1.21186e-07
-8.54371e-07
3.26746e-08
-9.73168e-07
-4.44589e-09
-8.71478e-07
-9.46772e-09
-3.94472e-07
4.70802e-08
1.99647e-07
4.93037e-08
-1.7308e-07
1.62717e-07
7.82949e-08
4.61946e-08
-2.20309e-07
-6.04413e-08
1.62309e-07
-8.93075e-08
7.73141e-07
-1.29334e-06
-1.92355e-06
1.05457e-06
1.72795e-06
2.10781e-06
2.36681e-06
2.53938e-06
2.62774e-06
2.77963e-06
2.9214e-06
3.04258e-06
3.07526e-06
3.07081e-06
3.06134e-06
3.10842e-06
3.15773e-06
3.32044e-06
3.36664e-06
3.3062e-06
3.21689e-06
1.92355e-06
)
;

boundaryField
{
    movingWall
    {
        type            calculated;
        value           uniform 0;
    }
    fixedWalls
    {
        type            calculated;
        value           uniform 0;
    }
    frontAndBack
    {
        type            empty;
        value           nonuniform 0();
    }
}


// ************************************************************************* //
