/*--------------------------------*- C++ -*----------------------------------*\
| =========                 |                                                 |
| \\      /  F ield         | OpenFOAM: The Open Source CFD Toolbox           |
|  \\    /   O peration     | Version:  5.x                                   |
|   \\  /    A nd           | Web:      www.OpenFOAM.org                      |
|    \\/     M anipulation  |                                                 |
\*---------------------------------------------------------------------------*/
FoamFile
{
    version     2.0;
    format      ascii;
    class       volScalarField;
    location    "10.5";
    object      p;
}
// * * * * * * * * * * * * * * * * * * * * * * * * * * * * * * * * * * * * * //

dimensions      [0 2 -2 0 0 0 0];

internalField   nonuniform List<scalar> 
400
(
1.4048e-10
-0.000479672
-0.000813061
-0.00101179
-0.00111107
-0.00117103
-0.00120674
-0.00121004
-0.00121123
-0.00120798
-0.00121459
-0.00120973
-0.001183
-0.00118313
-0.00119839
-0.00112085
-0.00101155
-0.000804034
-0.000559165
0.000300664
-0.000604659
-0.000852766
-0.0010198
-0.00111464
-0.00115024
-0.00117935
-0.0012161
-0.00122091
-0.00121046
-0.00121519
-0.00122693
-0.0012092
-0.00119023
-0.00118403
-0.00120211
-0.00115045
-0.00118727
-0.0011392
-0.00102046
-0.00040517
-0.000797841
-0.000990972
-0.00107378
-0.00112159
-0.00115603
-0.00118766
-0.00120759
-0.00121032
-0.00121642
-0.00120609
-0.00122091
-0.00120089
-0.0012111
-0.00119251
-0.00120794
-0.0011753
-0.00118151
-0.00115268
-0.00107853
-0.000818484
-0.000938893
-0.00103759
-0.00107737
-0.00112417
-0.00116092
-0.00119015
-0.00120906
-0.00121532
-0.00122128
-0.0012134
-0.00121782
-0.00120393
-0.00120228
-0.0011843
-0.00119633
-0.00117019
-0.00118427
-0.00117782
-0.00120522
-0.00106708
-0.00101651
-0.00105609
-0.00108295
-0.0011328
-0.00117171
-0.00120045
-0.00121831
-0.00122011
-0.00122771
-0.00121494
-0.00122362
-0.00120409
-0.00121678
-0.00119446
-0.00121499
-0.00119746
-0.00121406
-0.00120094
-0.00119904
-0.00112356
-0.00107376
-0.0010861
-0.00111883
-0.00117123
-0.00121114
-0.00123399
-0.00124606
-0.00123965
-0.00124082
-0.0012249
-0.00122369
-0.00120676
-0.00120622
-0.00118967
-0.00119407
-0.00117694
-0.00119371
-0.00116266
-0.00118661
-0.00116063
-0.00114703
-0.00116525
-0.00120288
-0.00126047
-0.00128412
-0.0012898
-0.00128524
-0.00126645
-0.00125838
-0.00123663
-0.00123425
-0.0012137
-0.0012201
-0.00119936
-0.00121628
-0.00119546
-0.00121661
-0.00119572
-0.00122974
-0.0011709
-0.00126541
-0.00130677
-0.00135775
-0.00141316
-0.00142233
-0.00138728
-0.00134763
-0.00130367
-0.00127785
-0.00124647
-0.00123336
-0.00121153
-0.00120819
-0.0011892
-0.00119609
-0.00117541
-0.00119352
-0.00116041
-0.00117989
-0.001172
-0.00138145
-0.00145217
-0.00156995
-0.00163933
-0.00162688
-0.00153967
-0.00143217
-0.00135031
-0.00130416
-0.00126427
-0.00124516
-0.00122071
-0.00122026
-0.00119517
-0.00121145
-0.00118358
-0.00121087
-0.00118357
-0.00122714
-0.00117473
-0.00153754
-0.00165728
-0.00183394
-0.00194109
-0.00188898
-0.00172269
-0.00152704
-0.00137982
-0.00131371
-0.00125691
-0.00123575
-0.00120563
-0.00120313
-0.00117902
-0.00119421
-0.0011677
-0.00119121
-0.00115013
-0.00117694
-0.00116366
-0.00153639
-0.0017053
-0.00191894
-0.00206027
-0.00205457
-0.00187314
-0.00161933
-0.00141634
-0.00133501
-0.00127032
-0.00124166
-0.00121108
-0.00121404
-0.00118347
-0.0011958
-0.00116476
-0.00120449
-0.0011597
-0.00121691
-0.00115793
-0.00135838
-0.00159459
-0.00186708
-0.00209677
-0.00213171
-0.00190679
-0.00161908
-0.00139713
-0.00130946
-0.00124812
-0.00122072
-0.00118722
-0.00118257
-0.00116032
-0.00117644
-0.00114403
-0.00118787
-0.00113556
-0.00116554
-0.00112548
-0.00101141
-0.00132869
-0.00165679
-0.00190257
-0.00193179
-0.0017649
-0.00146758
-0.00124951
-0.00116837
-0.00121308
-0.00118562
-0.00119048
-0.00119533
-0.00117461
-0.00119463
-0.00112653
-0.00118168
-0.0011393
-0.00117658
-0.00112588
-0.000687438
-0.00105861
-0.00132983
-0.00145645
-0.00145392
-0.00138837
-0.00130947
-0.0012581
-0.00122926
-0.00119628
-0.00116402
-0.00116003
-0.00115367
-0.00112856
-0.00110525
-0.00111817
-0.00116653
-0.00108049
-0.00116925
-0.0011357
-0.000692418
-0.00102859
-0.00116032
-0.00119955
-0.00119038
-0.00118487
-0.00121122
-0.00119164
-0.00118644
-0.00115918
-0.00116713
-0.00121626
-0.00113467
-0.00123634
-0.00113911
-0.00119464
-0.00122965
-0.00116889
-0.00128493
-0.00116886
-0.0010411
-0.0011674
-0.00115961
-0.00107317
-0.00106943
-0.001087
-0.00113609
-0.0011372
-0.00114689
-0.00112596
-0.00112171
-0.00111528
-0.00110688
-0.001123
-0.00110426
-0.00108473
-0.00111557
-0.00116477
-0.00116041
-0.00111581
-0.00102775
-0.00119673
-0.00116618
-0.00103643
-0.00101614
-0.00103178
-0.00107497
-0.00108387
-0.00112709
-0.00110553
-0.00114752
-0.00115103
-0.0011277
-0.00119385
-0.00112122
-0.00121603
-0.00134358
-0.00112825
-0.00125472
-0.00100736
-0.00100017
-0.0011607
-0.00106577
-0.00104673
-0.00104146
-0.00106048
-0.001083
-0.00109884
-0.00111204
-0.00111393
-0.00112865
-0.00109498
-0.00111921
-0.00112556
-0.00111935
-0.00126913
-0.0011889
-0.000946839
-0.00100444
-0.000780292
-0.000960359
-0.00109025
-0.00107237
-0.00105845
-0.00102505
-0.00101936
-0.00105808
-0.00107356
-0.00110049
-0.001107
-0.00113569
-0.00111337
-0.00117267
-0.00110739
-0.00118557
-0.0011888
-0.00108842
-0.00129539
-0.00100103
-0.000565783
-0.00110754
-0.0010603
-0.000970761
-0.00104893
-0.0010316
-0.00104452
-0.00105864
-0.00107872
-0.00109175
-0.00110116
-0.00110207
-0.00109691
-0.00109202
-0.00108217
-0.00112779
-0.00115116
-0.00109106
-0.000855037
-0.000402541
0.000940789
)
;

boundaryField
{
    movingWall
    {
        type            zeroGradient;
    }
    fixedWalls
    {
        type            zeroGradient;
    }
    frontAndBack
    {
        type            empty;
    }
}


// ************************************************************************* //
