/*--------------------------------*- C++ -*----------------------------------*\
| =========                 |                                                 |
| \\      /  F ield         | OpenFOAM: The Open Source CFD Toolbox           |
|  \\    /   O peration     | Version:  5.x                                   |
|   \\  /    A nd           | Web:      www.OpenFOAM.org                      |
|    \\/     M anipulation  |                                                 |
\*---------------------------------------------------------------------------*/
FoamFile
{
    version     2.0;
    format      ascii;
    class       volVectorField;
    location    "6.6";
    object      U;
}
// * * * * * * * * * * * * * * * * * * * * * * * * * * * * * * * * * * * * * //

dimensions      [0 1 -1 0 0 0 0];

internalField   nonuniform List<vector> 
400
(
(-0.00162325 0.00183544 0)
(-0.00530214 0.00250489 0)
(-0.0102528 0.00426078 0)
(-0.0179381 0.00720595 0)
(-0.0310933 0.00653662 0)
(-0.0455446 -0.00284268 0)
(-0.0502713 -0.00640277 0)
(-0.0531176 0.00590733 0)
(-0.0628409 0.0108539 0)
(-0.0643579 -0.000725161 0)
(-0.0578488 -0.00152927 0)
(-0.0601062 0.00594543 0)
(-0.0612871 0.000188764 0)
(-0.0524541 -0.00698421 0)
(-0.0464283 -0.00376256 0)
(-0.0457218 -0.0011525 0)
(-0.0440833 -0.00295158 0)
(-0.0391304 -0.00601083 0)
(-0.0334287 -0.00894211 0)
(-0.00941454 -0.0167175 0)
(-0.00108026 0.00472327 0)
(-0.00329944 0.00583789 0)
(-0.0054317 0.00827775 0)
(-0.00692407 0.0125146 0)
(-0.00840101 0.0172806 0)
(-0.0133655 0.0186763 0)
(-0.0233895 0.0150419 0)
(-0.0353131 0.00707109 0)
(-0.0407826 0.000561417 0)
(-0.0413347 -0.00263543 0)
(-0.0428193 -0.00325438 0)
(-0.0410072 -0.00460756 0)
(-0.0348242 -0.00702552 0)
(-0.029681 -0.00757637 0)
(-0.027526 -0.00529184 0)
(-0.0239755 -0.00398631 0)
(-0.0235295 -0.00348919 0)
(-0.0205217 -0.00782714 0)
(-0.0220057 -0.0155389 0)
(-0.00501488 -0.0353033 0)
(-0.000637933 0.00642721 0)
(-0.00188753 0.00735921 0)
(-0.00282157 0.00907715 0)
(-0.00296271 0.0118119 0)
(-0.0019115 0.0149315 0)
(-0.000439818 0.0168314 0)
(-3.32838e-05 0.0173924 0)
(-0.000477527 0.0165794 0)
(-0.00196579 0.0128088 0)
(-0.0046054 0.00608545 0)
(-0.00707147 0.000162263 0)
(-0.00752613 -0.00418464 0)
(-0.00753287 -0.00812593 0)
(-0.0069509 -0.010616 0)
(-0.00838956 -0.00937578 0)
(-0.00598118 -0.00736645 0)
(-0.00738365 -0.00398682 0)
(-0.00366689 -0.00636428 0)
(-0.00964189 -0.0149315 0)
(-0.00175528 -0.0422335 0)
(-0.000284874 0.00734442 0)
(-0.000821309 0.00811792 0)
(-0.00106425 0.00931648 0)
(-0.000689227 0.0110533 0)
(0.000653947 0.0130449 0)
(0.00306071 0.0145701 0)
(0.00584956 0.0149145 0)
(0.00826415 0.0135251 0)
(0.0095209 0.00930287 0)
(0.00973971 0.00396167 0)
(0.00894873 -0.000760938 0)
(0.00822353 -0.00448916 0)
(0.00585882 -0.00710197 0)
(0.00449628 -0.00821246 0)
(0.000423899 -0.00693882 0)
(0.000562587 -0.00639731 0)
(-0.00275089 -0.00523141 0)
(0.000770492 -0.0079185 0)
(-0.00518368 -0.0155771 0)
(-0.00027629 -0.0479894 0)
(-3.46072e-05 0.00764633 0)
(-8.6074e-05 0.00827285 0)
(8.95844e-05 0.00906561 0)
(0.000724898 0.0101403 0)
(0.00199249 0.0112962 0)
(0.00398575 0.0121038 0)
(0.00644507 0.0121002 0)
(0.0089991 0.0109091 0)
(0.0109284 0.00845208 0)
(0.0120642 0.00505025 0)
(0.0115475 0.00163309 0)
(0.0105017 -0.00175235 0)
(0.00762034 -0.00371296 0)
(0.00602027 -0.00542249 0)
(0.00202026 -0.00465029 0)
(0.00301313 -0.00483786 0)
(-0.000714099 -0.00376967 0)
(0.00245572 -0.0047932 0)
(-0.00213651 -0.0123995 0)
(0.00194002 -0.0479988 0)
(0.000129138 0.0075363 0)
(0.000390044 0.00806314 0)
(0.000802085 0.00857248 0)
(0.00152136 0.00922023 0)
(0.00261533 0.00981559 0)
(0.00413396 0.010116 0)
(0.00591874 0.00984474 0)
(0.00782083 0.00880228 0)
(0.00924957 0.00699106 0)
(0.010176 0.00439555 0)
(0.00971437 0.001803 0)
(0.00921583 -0.000892266 0)
(0.00686248 -0.00214326 0)
(0.00633897 -0.00397011 0)
(0.00249027 -0.00311064 0)
(0.00382496 -0.00431771 0)
(-0.0006466 -0.00323404 0)
(0.0025061 -0.00682526 0)
(-0.00223361 -0.0144169 0)
(0.00202245 -0.0480293 0)
(0.000240333 0.00717069 0)
(0.000700392 0.00764233 0)
(0.00124436 0.00796188 0)
(0.00195908 0.00830279 0)
(0.00287299 0.00857686 0)
(0.00401903 0.00857043 0)
(0.00525968 0.00822124 0)
(0.00658501 0.00729508 0)
(0.00752933 0.0059819 0)
(0.00828062 0.00404664 0)
(0.00803838 0.00249424 0)
(0.00787182 0.000217415 0)
(0.00585345 -0.000167766 0)
(0.00596199 -0.00256417 0)
(0.00227909 -0.00132218 0)
(0.00430568 -0.00338859 0)
(-0.00081895 -0.0020259 0)
(0.00306668 -0.00464746 0)
(-0.0030229 -0.0116494 0)
(0.00138852 -0.0505551 0)
(0.000315 0.00661265 0)
(0.000894489 0.00708 0)
(0.00146491 0.00733573 0)
(0.00213594 0.00761697 0)
(0.00288603 0.00773725 0)
(0.00377589 0.00768553 0)
(0.00465389 0.00730445 0)
(0.00559807 0.00652451 0)
(0.00613953 0.00555562 0)
(0.00675881 0.00400529 0)
(0.00621868 0.00298853 0)
(0.00657314 0.000968133 0)
(0.00425318 0.000885506 0)
(0.00543236 -0.00114135 0)
(0.00129879 3.59623e-05 0)
(0.00425743 -0.00198149 0)
(-0.0015916 -0.000558593 0)
(0.00307275 -0.00461683 0)
(-0.00352189 -0.0128826 0)
(0.00353285 -0.0496105 0)
(0.000397475 0.00597126 0)
(0.00110229 0.0065537 0)
(0.00176337 0.00672531 0)
(0.00235456 0.0067749 0)
(0.00292749 0.00679985 0)
(0.00357218 0.00652594 0)
(0.00409763 0.0062422 0)
(0.00480715 0.00550851 0)
(0.00505397 0.00489115 0)
(0.00566203 0.00354999 0)
(0.00512373 0.00308285 0)
(0.00574895 0.00105735 0)
(0.00383183 0.0016421 0)
(0.00532194 -0.00114037 0)
(0.00119672 0.000832821 0)
(0.00471014 -0.00220825 0)
(-0.00193261 -0.000148096 0)
(0.00379752 -0.00389069 0)
(-0.0046949 -0.0119117 0)
(0.00488331 -0.0504461 0)
(0.000544213 0.00504001 0)
(0.00128664 0.00559486 0)
(0.00169187 0.00607326 0)
(0.00221015 0.00653477 0)
(0.00265569 0.00664523 0)
(0.00322858 0.00669774 0)
(0.00364877 0.00635583 0)
(0.0042326 0.00578265 0)
(0.00421547 0.00522005 0)
(0.00486319 0.00406624 0)
(0.00381238 0.00375141 0)
(0.0049924 0.00209454 0)
(0.00204783 0.00259133 0)
(0.00483975 0.000726515 0)
(-0.000393919 0.00212085 0)
(0.00467083 0.000491074 0)
(-0.00272445 0.00155913 0)
(0.0040138 -0.00188769 0)
(-0.00532544 -0.0123196 0)
(0.00467594 -0.0507716 0)
(0.000683175 0.00417681 0)
(0.00177897 0.00569273 0)
(0.00265476 0.00589009 0)
(0.00292907 0.00572936 0)
(0.00305556 0.0056124 0)
(0.00324421 0.00508849 0)
(0.00317456 0.00498249 0)
(0.00362618 0.00436944 0)
(0.00336931 0.00414775 0)
(0.00415685 0.00311804 0)
(0.0031726 0.00311372 0)
(0.00463028 0.00151754 0)
(0.00227615 0.00222722 0)
(0.00506107 -3.74133e-05 0)
(0.000482177 0.00161979 0)
(0.00509613 -0.00131024 0)
(-0.00266979 0.000978976 0)
(0.0043677 -0.00264385 0)
(-0.00642901 -0.0134054 0)
(0.00463673 -0.0498 0)
(0.0015304 0.00239269 0)
(0.0023986 0.00328423 0)
(0.00167324 0.00473509 0)
(0.00201369 0.00608736 0)
(0.00222498 0.00655258 0)
(0.00275679 0.0070108 0)
(0.00299052 0.00650179 0)
(0.00343129 0.00602876 0)
(0.00299702 0.0054048 0)
(0.00378098 0.00455065 0)
(0.0022874 0.00425368 0)
(0.0039188 0.00306561 0)
(0.000632521 0.0034683 0)
(0.0040181 0.00213784 0)
(-0.00194968 0.00366246 0)
(0.00471839 0.00312664 0)
(-0.00443654 0.00349274 0)
(0.0058867 0.00157982 0)
(-0.00532594 -0.0109004 0)
(0.00640183 -0.0551793 0)
(0.00271137 0.000256941 0)
(0.00373606 0.00648484 0)
(0.00504191 0.00643551 0)
(0.00412942 0.00558186 0)
(0.00315893 0.00463421 0)
(0.00256994 0.00358254 0)
(0.00189887 0.00391763 0)
(0.00226988 0.00344483 0)
(0.00182918 0.00349229 0)
(0.00283939 0.00275323 0)
(0.00161053 0.00285731 0)
(0.00372775 0.00182916 0)
(0.000735568 0.00214578 0)
(0.00531531 0.0011042 0)
(-0.000557575 0.000866579 0)
(0.00672457 -0.000135042 0)
(-0.00241685 -0.000154187 0)
(0.0070142 -0.00261343 0)
(-0.00651213 -0.0145105 0)
(0.00606752 -0.0475414 0)
(0.00716598 -0.00434562 0)
(0.00588246 0.000762245 0)
(0.00211302 0.00413151 0)
(0.00402271 0.00725604 0)
(0.00403799 0.00838937 0)
(0.0040488 0.00911624 0)
(0.00361808 0.00742798 0)
(0.00367919 0.00689239 0)
(0.00265982 0.00562933 0)
(0.00363585 0.00538762 0)
(0.00157535 0.00436645 0)
(0.00357543 0.00437395 0)
(2.67693e-05 0.00318042 0)
(0.00287777 0.00362711 0)
(-0.00203646 0.00407336 0)
(0.00165894 0.00503287 0)
(-0.00689321 0.00498611 0)
(0.00779781 0.00523806 0)
(-0.00568674 -0.00718976 0)
(0.00640101 -0.0542224 0)
(0.000681012 -0.0132761 0)
(0.00837332 0.0125228 0)
(0.0021875 0.00761226 0)
(-0.00125448 0.0050622 0)
(-0.00346954 0.00382157 0)
(-0.00248801 0.00294435 0)
(-0.00233655 0.00376089 0)
(-0.00120591 0.00311769 0)
(-0.000691931 0.0031422 0)
(5.62753e-06 0.00253478 0)
(-3.61893e-05 0.00261085 0)
(0.000745048 0.00195929 0)
(-0.000410743 0.00254346 0)
(0.00274779 0.00178889 0)
(-0.00337608 0.00112883 0)
(0.00882852 0.00259195 0)
(-0.00324678 -0.0062822 0)
(0.00723869 -0.00493773 0)
(-0.00766149 -0.0156878 0)
(0.00773765 -0.0513706 0)
(-0.00477559 -0.0175914 0)
(0.00289811 0.00103247 0)
(0.00522329 0.0122754 0)
(0.00706345 0.0114318 0)
(0.00969921 0.00983566 0)
(0.00754532 0.00905688 0)
(0.00807151 0.00651913 0)
(0.00823311 0.00653651 0)
(0.00617513 0.00491039 0)
(0.00813503 0.00584489 0)
(0.00364809 0.0042492 0)
(0.00819654 0.00597492 0)
(0.000813635 0.00179302 0)
(0.00929422 0.0076665 0)
(-0.00178034 -0.00065255 0)
(0.00472309 0.00567207 0)
(-0.00561292 0.00874791 0)
(0.0079945 0.00942592 0)
(-0.00649241 -0.00356267 0)
(0.00809065 -0.0498314 0)
(-0.000485913 -0.0062706 0)
(-0.011345 0.00538187 0)
(-0.00949341 0.00131278 0)
(-0.00343142 0.0043536 0)
(-0.010626 0.00351063 0)
(-0.00229549 0.00367787 0)
(-0.00925074 0.00332827 0)
(-0.0041794 0.00348894 0)
(-0.00725596 0.0033641 0)
(-0.00578955 0.00329125 0)
(-0.00546467 0.00250352 0)
(-0.00661259 0.00295048 0)
(-0.00287506 0.00128135 0)
(-0.00878376 0.00307627 0)
(-0.000689904 0.00504119 0)
(-0.00481375 0.00440175 0)
(-0.0058964 -0.010841 0)
(0.0113241 -0.00513402 0)
(-0.00575749 -0.0199084 0)
(0.00846795 -0.0546701 0)
(-0.00854 -0.0113171 0)
(0.00943224 0.00908233 0)
(0.00684419 0.00556824 0)
(0.00376054 0.00965825 0)
(0.0086837 0.00923489 0)
(0.00740853 0.00778077 0)
(0.00982547 0.00749735 0)
(0.0109091 0.00635022 0)
(0.0109311 0.00586225 0)
(0.0142576 0.00593208 0)
(0.0107939 0.00501636 0)
(0.0162698 0.0054289 0)
(0.0100988 0.00313854 0)
(0.0165936 0.00865353 0)
(0.00642134 -0.00496067 0)
(0.017539 0.0100974 0)
(0.00876043 -0.00315808 0)
(0.00803932 0.00832165 0)
(-0.00117405 0.00610425 0)
(0.0125596 -0.0440744 0)
(-0.0211569 -0.00464887 0)
(-0.0135289 -0.00537718 0)
(-0.0243713 0.00456679 0)
(-0.013811 0.00049149 0)
(-0.0198177 0.001858 0)
(-0.0108215 0.000392063 0)
(-0.0174565 0.00168844 0)
(-0.00736829 0.00038344 0)
(-0.0165968 0.000982997 0)
(-0.00396961 0.00172491 0)
(-0.0154564 0.00031813 0)
(-0.000101445 0.00249998 0)
(-0.0145022 0.000368859 0)
(0.00332208 0.00646696 0)
(-0.00706797 0.000878705 0)
(-0.00452487 0.00584488 0)
(0.00552615 -0.0035858 0)
(-0.0106965 0.000219079 0)
(0.0172803 -0.0277412 0)
(0.0126555 -0.0521991 0)
(0.00230622 0.018139 0)
(0.0133495 0.0142498 0)
(0.0124773 0.00679002 0)
(0.0205242 0.00683496 0)
(0.0229993 0.00584283 0)
(0.0252301 0.00542575 0)
(0.0299132 0.0049582 0)
(0.0310617 0.00474798 0)
(0.0353176 0.00435168 0)
(0.0360199 0.00382309 0)
(0.0401345 0.00386298 0)
(0.0408448 0.00274126 0)
(0.0442163 0.00331932 0)
(0.0454132 0.000310937 0)
(0.048034 0.00298922 0)
(0.0502629 -0.000613511 0)
(0.0502921 0.0017738 0)
(0.0509095 -0.000472686 0)
(0.0438607 -0.00519517 0)
(0.0271668 -0.00175101 0)
)
;

boundaryField
{
    movingWall
    {
        type            fixedValue;
        value           uniform (1 0 0);
    }
    fixedWalls
    {
        type            noSlip;
    }
    frontAndBack
    {
        type            empty;
    }
}


// ************************************************************************* //
