/*--------------------------------*- C++ -*----------------------------------*\
| =========                 |                                                 |
| \\      /  F ield         | OpenFOAM: The Open Source CFD Toolbox           |
|  \\    /   O peration     | Version:  5.x                                   |
|   \\  /    A nd           | Web:      www.OpenFOAM.org                      |
|    \\/     M anipulation  |                                                 |
\*---------------------------------------------------------------------------*/
FoamFile
{
    version     2.0;
    format      ascii;
    class       volScalarField;
    location    "13.5";
    object      p;
}
// * * * * * * * * * * * * * * * * * * * * * * * * * * * * * * * * * * * * * //

dimensions      [0 2 -2 0 0 0 0];

internalField   nonuniform List<scalar> 
400
(
-3.6923e-11
-0.000482313
-0.000857124
-0.00107638
-0.00116418
-0.00122132
-0.00122954
-0.00124173
-0.00123994
-0.00123204
-0.00122298
-0.00121276
-0.00121399
-0.0012137
-0.00119908
-0.00113763
-0.00100429
-0.00075383
-0.000601939
0.000274138
-0.000519972
-0.000877509
-0.00109683
-0.0011954
-0.00122174
-0.001239
-0.001247
-0.00124146
-0.00123898
-0.00123006
-0.00121945
-0.00120572
-0.00123008
-0.00122333
-0.00124066
-0.00118006
-0.00116628
-0.00103766
-0.00104251
-0.000417903
-0.00086497
-0.00111672
-0.00117811
-0.00125054
-0.00122914
-0.00124503
-0.00124771
-0.00123845
-0.00124377
-0.00122676
-0.00123237
-0.00121865
-0.00123125
-0.00121877
-0.00122645
-0.0011834
-0.00116377
-0.0011009
-0.00105999
-0.000807189
-0.00104435
-0.00121336
-0.00122602
-0.00124202
-0.00124543
-0.00124188
-0.00124634
-0.00124123
-0.00124079
-0.00123175
-0.00123143
-0.00121739
-0.00123279
-0.00121243
-0.00123008
-0.00119605
-0.00118135
-0.00114308
-0.00121294
-0.00104602
-0.00115379
-0.0012455
-0.00123624
-0.00124792
-0.00124552
-0.00124459
-0.00124895
-0.00124276
-0.00124482
-0.00123035
-0.00123145
-0.00122
-0.00123082
-0.00121584
-0.00122259
-0.00120034
-0.00120256
-0.00117233
-0.00116536
-0.00110462
-0.00121676
-0.00125573
-0.00124851
-0.0012478
-0.00125212
-0.00125019
-0.0012558
-0.00124955
-0.00124879
-0.00123639
-0.00122962
-0.001223
-0.00123006
-0.00121389
-0.00122291
-0.00119909
-0.00121186
-0.00117471
-0.00119954
-0.00115658
-0.00124176
-0.00126028
-0.0012635
-0.00125429
-0.00125955
-0.00125934
-0.0012634
-0.00125981
-0.00125648
-0.00124099
-0.00123021
-0.00122991
-0.00123736
-0.00122449
-0.00123584
-0.00122224
-0.00122176
-0.00117946
-0.0012023
-0.0011684
-0.00127443
-0.00125723
-0.00127475
-0.00126188
-0.00127282
-0.00127798
-0.00128515
-0.00127935
-0.00127271
-0.00125788
-0.00123223
-0.00122709
-0.00123336
-0.00122031
-0.00123275
-0.00121357
-0.0012366
-0.00118188
-0.00120988
-0.00118376
-0.00126638
-0.00127037
-0.00127726
-0.00128323
-0.0012926
-0.00130337
-0.00131324
-0.00131018
-0.00129663
-0.00127975
-0.00125631
-0.0012458
-0.0012602
-0.00124437
-0.00125533
-0.00124418
-0.00124409
-0.001201
-0.00124829
-0.00119462
-0.00127056
-0.0012779
-0.00129395
-0.00129438
-0.00132537
-0.00134967
-0.00136809
-0.00136196
-0.0013385
-0.00130168
-0.00126791
-0.00123672
-0.00125255
-0.00122737
-0.00125144
-0.0012384
-0.00126097
-0.00121488
-0.00121055
-0.00121834
-0.00129012
-0.00128196
-0.00129498
-0.00131633
-0.00134496
-0.00140104
-0.00146648
-0.00146412
-0.00141848
-0.00134953
-0.00129589
-0.00127378
-0.00129411
-0.00128299
-0.00133284
-0.00129063
-0.00131624
-0.00126111
-0.00127306
-0.00122821
-0.00128356
-0.00129795
-0.00131107
-0.00133946
-0.00142297
-0.00157682
-0.00170327
-0.00171025
-0.00163236
-0.00148598
-0.00132103
-0.00126868
-0.00127118
-0.00124747
-0.0013007
-0.00127642
-0.0012925
-0.00121983
-0.00128483
-0.00119247
-0.0012963
-0.00130041
-0.00132316
-0.00137412
-0.00153521
-0.00172973
-0.00192678
-0.00195696
-0.00185416
-0.00163663
-0.00134376
-0.00129189
-0.00133361
-0.00132975
-0.00136879
-0.00131191
-0.00133513
-0.00124509
-0.00130789
-0.00114549
-0.0012578
-0.00127521
-0.00131174
-0.00137383
-0.00154095
-0.00179095
-0.00199195
-0.00201504
-0.00189384
-0.00165747
-0.00134236
-0.00127194
-0.0012878
-0.00126123
-0.00127326
-0.00122502
-0.00124422
-0.0011437
-0.00118045
-0.00116926
-0.00122187
-0.00126869
-0.00127647
-0.0013308
-0.0014955
-0.00172387
-0.00188167
-0.00191264
-0.00181764
-0.00158272
-0.00132047
-0.0013114
-0.00131033
-0.00136551
-0.00143719
-0.00141181
-0.00146739
-0.00131417
-0.0013928
-0.00126179
-0.00113802
-0.00112766
-0.00117601
-0.00120395
-0.00134145
-0.00148794
-0.00161598
-0.00167752
-0.00162225
-0.00143911
-0.00128778
-0.00128013
-0.00134544
-0.0013747
-0.00136129
-0.00137998
-0.00120011
-0.00112597
-0.00119899
-0.00119108
-0.000971783
-0.00105906
-0.00109781
-0.0011139
-0.00118631
-0.00133083
-0.00140768
-0.00147052
-0.00152638
-0.00135986
-0.00123862
-0.00127782
-0.00151988
-0.0015706
-0.00141474
-0.00137364
-0.00137061
-0.00118157
-0.00137583
-0.00106798
-0.000821549
-0.000984061
-0.000996323
-0.00101186
-0.00107097
-0.00119404
-0.00125528
-0.00134952
-0.00155803
-0.0015741
-0.00150285
-0.00139833
-0.00147514
-0.00151507
-0.00141971
-0.00127293
-0.00114843
-0.000983138
-0.000965121
-0.000684313
-0.00054537
-0.000776825
-0.000925241
-0.000974054
-0.000970924
-0.000994952
-0.000938841
-0.00111521
-0.00160275
-0.00196902
-0.00174536
-0.00140214
-0.00152497
-0.0011703
-0.00133215
-0.00125694
-0.0010609
-0.00144172
-0.000810449
-0.00041812
-0.000325217
-0.00066189
-0.000843277
-0.000927853
-0.000962057
-0.00108452
-0.00128569
-0.00140151
-0.00144904
-0.00152169
-0.00157043
-0.00148512
-0.00132358
-0.00114704
-0.00101071
-0.000994307
-0.00104331
-0.00105316
-0.000312884
0.00130974
)
;

boundaryField
{
    movingWall
    {
        type            zeroGradient;
    }
    fixedWalls
    {
        type            zeroGradient;
    }
    frontAndBack
    {
        type            empty;
    }
}


// ************************************************************************* //
