/*--------------------------------*- C++ -*----------------------------------*\
| =========                 |                                                 |
| \\      /  F ield         | OpenFOAM: The Open Source CFD Toolbox           |
|  \\    /   O peration     | Version:  5.x                                   |
|   \\  /    A nd           | Web:      www.OpenFOAM.org                      |
|    \\/     M anipulation  |                                                 |
\*---------------------------------------------------------------------------*/
FoamFile
{
    version     2.0;
    format      ascii;
    class       surfaceScalarField;
    location    "13.5";
    object      phi;
}
// * * * * * * * * * * * * * * * * * * * * * * * * * * * * * * * * * * * * * //

dimensions      [0 3 -1 0 0 0 0];

internalField   nonuniform List<scalar> 
760
(
-1.05465e-06
1.05465e-06
-1.80541e-06
7.50759e-07
-2.11576e-06
3.10357e-07
-2.31451e-06
1.98746e-07
-2.31858e-06
4.07495e-09
-2.40955e-06
9.09621e-08
-2.38942e-06
-2.01243e-08
-2.41468e-06
2.52554e-08
-2.40191e-06
-1.27703e-08
-2.38834e-06
-1.35664e-08
-2.3938e-06
5.45764e-09
-2.38004e-06
-1.37554e-08
-2.41027e-06
3.02268e-08
-2.36667e-06
-4.36026e-08
-2.34627e-06
-2.03929e-08
-2.25808e-06
-8.81927e-08
-2.17228e-06
-8.58023e-08
-1.83505e-06
-3.37228e-07
-1.17333e-06
-6.61719e-07
-1.17333e-06
-6.14736e-07
1.66938e-06
-9.71439e-07
1.10746e-06
-1.06673e-06
4.05653e-07
-1.04244e-06
1.74455e-07
-1.0838e-06
4.54327e-08
-1.01098e-06
1.81441e-08
-1.02016e-06
-1.09527e-08
-9.85817e-07
-9.08289e-09
-9.82982e-07
-1.56056e-08
-9.89666e-07
-6.88188e-09
-9.82641e-07
-1.5674e-09
-9.96107e-07
-2.8933e-10
-1.00655e-06
4.06689e-08
-1.01796e-06
-3.21926e-08
-1.02504e-06
-1.3312e-08
-9.69266e-07
-1.43967e-07
-9.27485e-07
-1.27584e-07
-9.66288e-07
-2.98424e-07
-9.28346e-07
-6.99662e-07
-2.10168e-06
-3.13597e-07
1.98298e-06
-4.13554e-07
1.20742e-06
-3.91247e-07
3.83346e-07
-3.37275e-07
1.20482e-07
-3.00831e-07
8.98937e-09
-2.90247e-07
7.56037e-09
-2.71838e-07
-2.93622e-08
-2.90495e-07
9.5745e-09
-2.71363e-07
-3.47379e-08
-2.91759e-07
1.35145e-08
-2.7124e-07
-2.20866e-08
-3.02005e-07
3.04756e-08
-3.07448e-07
4.61113e-08
-3.5087e-07
1.12303e-08
-3.44313e-07
-1.98696e-08
-3.12444e-07
-1.75835e-07
-2.49546e-07
-1.90482e-07
-1.1061e-07
-4.37361e-07
-1.89103e-07
-6.21168e-07
-2.29078e-06
-1.4008e-07
2.12306e-06
-1.30869e-07
1.19821e-06
-1.53061e-07
4.05538e-07
-1.59294e-07
1.26716e-07
-1.75661e-07
2.53557e-08
-2.17081e-07
4.89804e-08
-2.45654e-07
-7.8944e-10
-2.76206e-07
4.01273e-08
-2.82005e-07
-2.89396e-08
-2.82103e-07
1.36123e-08
-2.68078e-07
-3.6111e-08
-2.47546e-07
9.94385e-09
-1.99657e-07
-1.77812e-09
-1.56158e-07
-3.22689e-08
-1.46966e-07
-2.9061e-08
-5.17126e-08
-2.71089e-07
-1.29362e-07
-1.12832e-07
-2.62794e-07
-3.0393e-07
-2.23422e-07
-6.60539e-07
-2.5142e-06
-7.40764e-08
2.19714e-06
-7.38731e-08
1.19801e-06
-3.31714e-08
3.64836e-07
-9.22974e-08
1.85842e-07
-1.61887e-07
9.49454e-08
-2.08904e-07
9.59974e-08
-2.50352e-07
4.06582e-08
-2.55367e-07
4.51424e-08
-2.52902e-07
-3.14044e-08
-2.39276e-07
-1.37049e-11
-1.75077e-07
-1.0031e-07
-1.42548e-07
-2.25858e-08
-8.3941e-08
-6.03847e-08
-3.23964e-08
-8.38135e-08
-1.71812e-08
-4.42762e-08
-2.58526e-08
-2.62418e-07
1.49369e-08
-1.53621e-07
6.80959e-08
-3.57089e-07
2.44092e-08
-6.16852e-07
-2.48979e-06
-4.4845e-08
2.24198e-06
-2.40718e-08
1.17723e-06
-3.20388e-09
3.43968e-07
-9.51559e-08
2.77794e-07
-1.85044e-07
1.84834e-07
-2.37709e-07
1.48663e-07
-2.86655e-07
8.96033e-08
-3.01837e-07
6.03248e-08
-3.04514e-07
-2.87274e-08
-2.93324e-07
-1.12037e-08
-2.18622e-07
-1.75012e-07
-1.89493e-07
-5.1715e-08
-1.56595e-07
-9.32826e-08
-1.1399e-07
-1.26418e-07
-1.38687e-07
-1.95798e-08
-1.76036e-07
-2.25068e-07
-1.06635e-07
-2.23023e-07
-7.5216e-08
-3.88508e-07
-1.04496e-07
-5.87573e-07
-2.59429e-06
-4.93621e-09
2.24692e-06
-5.35219e-08
1.22582e-06
-8.8245e-08
3.78691e-07
-1.08784e-07
2.98333e-07
-1.97658e-07
2.73707e-07
-2.74105e-07
2.2511e-07
-3.1684e-07
1.32338e-07
-3.33898e-07
7.73837e-08
-3.32776e-07
-2.98503e-08
-3.17265e-07
-2.67147e-08
-1.7722e-07
-3.15056e-07
-1.45301e-07
-8.3634e-08
-8.96015e-08
-1.48982e-07
-4.71064e-08
-1.68913e-07
2.61955e-08
-9.28817e-08
9.45853e-08
-2.93458e-07
1.13672e-08
-1.39805e-07
3.78104e-10
-3.77518e-07
1.67868e-08
-6.03981e-07
-2.5775e-06
1.28735e-08
2.23404e-06
-1.47408e-09
1.24017e-06
-4.16208e-08
4.18838e-07
-1.79821e-07
4.36534e-07
-2.80916e-07
3.74802e-07
-3.44712e-07
2.88905e-07
-4.23284e-07
2.1091e-07
-4.28061e-07
8.216e-08
-4.29472e-07
-2.84389e-08
-3.93848e-07
-6.23383e-08
-2.30212e-07
-4.78693e-07
-2.18511e-07
-9.53347e-08
-2.23586e-07
-1.43907e-07
-2.39176e-07
-1.53323e-07
-1.38153e-07
-1.93905e-07
-1.43115e-07
-2.88496e-07
-1.48645e-07
-1.34274e-07
-5.6001e-08
-4.70163e-07
-7.71985e-08
-5.82784e-07
-2.6547e-06
2.35629e-09
2.23169e-06
-1.79469e-08
1.26047e-06
-1.45167e-07
5.46058e-07
-2.02483e-07
4.93849e-07
-2.85422e-07
4.57742e-07
-3.79501e-07
3.82984e-07
-4.39829e-07
2.71239e-07
-4.85017e-07
1.27348e-07
-4.73185e-07
-4.02718e-08
-3.39652e-07
-1.95871e-07
-1.46206e-07
-6.72139e-07
-1.62615e-07
-7.89258e-08
-1.6014e-07
-1.46382e-07
-1.83302e-07
-1.30161e-07
-1.1725e-07
-2.59957e-07
-9.98166e-08
-3.0593e-07
-7.34187e-08
-1.60672e-07
1.22018e-08
-5.55783e-07
-8.03523e-09
-5.62547e-07
-2.66274e-06
4.92706e-08
2.18242e-06
-2.1351e-08
1.33109e-06
-1.0035e-07
6.25058e-07
-1.6002e-07
5.5352e-07
-2.99719e-07
5.9744e-07
-5.03994e-07
5.8726e-07
-6.42481e-07
4.09726e-07
-6.66365e-07
1.51232e-07
-5.45715e-07
-1.60922e-07
-2.88624e-07
-4.52962e-07
-1.93465e-07
-7.67298e-07
-1.88139e-07
-8.42511e-08
-2.1802e-07
-1.16501e-07
-2.72602e-07
-7.55789e-08
-3.82426e-07
-1.50133e-07
-4.26244e-07
-2.62111e-07
-3.06995e-07
-2.79922e-07
-1.7496e-07
-6.87818e-07
-2.70365e-08
-7.1047e-07
-2.68977e-06
-5.06656e-08
2.23308e-06
3.50357e-08
1.24539e-06
-4.46672e-08
7.0476e-07
-2.48891e-07
7.57743e-07
-5.17101e-07
8.65651e-07
-7.60305e-07
8.30463e-07
-9.11847e-07
5.61267e-07
-8.19315e-07
5.87005e-08
-5.64515e-07
-4.15722e-07
-2.15655e-07
-8.01823e-07
-6.0408e-08
-9.22545e-07
4.39484e-09
-1.49054e-07
-2.35715e-08
-8.85348e-08
-1.52734e-07
5.3584e-08
-2.43424e-07
-5.94441e-08
-2.11355e-07
-2.9418e-07
-1.83272e-07
-3.08005e-07
-1.64822e-07
-7.06268e-07
-6.10342e-08
-8.14258e-07
-2.75081e-06
-1.69482e-08
2.25003e-06
-6.38154e-08
1.29226e-06
-1.85398e-07
8.26343e-07
-4.54566e-07
1.02691e-06
-7.47911e-07
1.159e-06
-9.32145e-07
1.0147e-06
-9.22886e-07
5.52008e-07
-8.07783e-07
-5.64024e-08
-6.3173e-07
-5.91775e-07
-3.05005e-07
-1.12855e-06
-1.15783e-07
-1.11177e-06
2.85352e-08
-2.93372e-07
1.20316e-07
-1.80315e-07
1.18995e-07
5.49047e-08
7.17883e-08
-1.22373e-08
2.54714e-08
-2.47863e-07
3.58089e-08
-3.18342e-07
-8.8335e-08
-5.82124e-07
-1.43109e-08
-8.88282e-07
-2.76512e-06
3.5343e-08
2.21469e-06
2.40287e-08
1.30357e-06
-1.41506e-07
9.91877e-07
-2.65047e-07
1.15045e-06
-3.50299e-07
1.24425e-06
-4.02684e-07
1.06708e-06
-3.91001e-07
5.40325e-07
-2.67499e-07
-1.79905e-07
-1.66747e-07
-6.92527e-07
-6.52756e-09
-1.28877e-06
1.24735e-07
-1.24303e-06
2.60143e-07
-4.2878e-07
4.41749e-07
-3.61922e-07
5.13289e-07
-1.6635e-08
4.90581e-07
1.04709e-08
4.10041e-07
-1.67323e-07
3.52565e-07
-2.60866e-07
2.12719e-07
-4.42279e-07
-3.01312e-08
-6.45432e-07
-2.79525e-06
-5.5996e-10
2.21525e-06
2.88561e-08
1.27415e-06
9.88432e-08
9.2189e-07
5.90762e-08
1.19022e-06
3.22291e-08
1.27109e-06
1.46385e-07
9.52926e-07
2.61083e-07
4.25627e-07
3.67395e-07
-2.86216e-07
4.74391e-07
-7.99523e-07
4.40299e-07
-1.25467e-06
3.26724e-07
-1.12945e-06
2.14478e-07
-3.16533e-07
-7.45595e-08
-7.28845e-08
-2.03622e-07
1.12428e-07
-2.55098e-07
6.19471e-08
-3.78716e-07
-4.37059e-08
-2.26745e-07
-4.12836e-07
-1.48416e-07
-5.20608e-07
-8.16893e-09
-7.85679e-07
-2.80342e-06
6.12023e-08
2.15405e-06
1.72378e-07
1.16298e-06
1.98406e-07
8.95862e-07
4.12377e-07
9.76249e-07
6.41764e-07
1.04171e-06
7.40106e-07
8.54584e-07
9.77847e-07
1.87887e-07
9.37632e-07
-2.46002e-07
9.40245e-07
-8.02137e-07
8.11069e-07
-1.1255e-06
4.68894e-07
-7.8728e-07
4.22907e-07
-2.70546e-07
3.70758e-07
-2.07361e-08
1.30587e-08
4.70127e-07
-9.22335e-08
1.67239e-07
-1.15228e-07
-2.07118e-08
-3.522e-08
-4.92844e-07
-1.69289e-07
-3.86539e-07
-1.63871e-07
-7.91097e-07
-2.96729e-06
1.49109e-07
2.00494e-06
3.37601e-07
9.74487e-07
5.29308e-07
7.04154e-07
7.88913e-07
7.16644e-07
1.00168e-06
8.28945e-07
1.26026e-06
5.95996e-07
1.31916e-06
1.28995e-07
1.35138e-06
-2.78223e-07
1.39947e-06
-8.50226e-07
9.85148e-07
-7.11179e-07
5.17387e-07
-3.19519e-07
4.32801e-07
-1.8596e-07
5.33189e-07
-1.21124e-07
5.94247e-07
4.09069e-07
8.27439e-07
-6.59529e-08
7.22737e-07
8.39907e-08
3.20643e-07
-9.07507e-08
-8.63584e-09
-5.72601e-08
1.11322e-07
-9.11055e-07
-2.85597e-06
1.5166e-07
1.85328e-06
1.64384e-07
9.61762e-07
3.62881e-07
5.05658e-07
6.0869e-07
4.70835e-07
8.66412e-07
5.71223e-07
1.23214e-06
2.30267e-07
1.37495e-06
-1.38156e-08
1.58169e-06
-4.84961e-07
1.5224e-06
-7.90933e-07
9.98211e-07
-1.86994e-07
2.79305e-07
3.99388e-07
-2.38453e-07
3.31798e-07
-6.19334e-07
2.59757e-07
-4.30451e-07
2.20186e-07
-2.61154e-07
-2.3525e-07
-3.51669e-07
1.74506e-07
1.42524e-07
-5.84944e-07
2.2077e-07
-1.35506e-07
-8.82276e-09
-6.81462e-07
-2.86479e-06
3.64307e-07
1.48897e-06
4.79851e-07
8.46217e-07
6.89004e-07
2.96505e-07
1.01984e-06
1.40004e-07
1.40621e-06
1.84854e-07
1.49875e-06
1.37722e-07
1.72278e-06
-2.37845e-07
1.8433e-06
-6.05478e-07
1.51308e-06
-4.60719e-07
1.43679e-06
-1.10706e-07
1.51478e-06
3.21403e-07
1.66906e-06
1.77518e-07
1.76337e-06
1.65444e-07
1.80057e-06
1.82985e-07
1.60464e-06
-3.93161e-08
1.22813e-06
5.51013e-07
7.91889e-07
-1.48701e-07
5.17095e-07
1.39287e-07
3.75116e-07
-5.39482e-07
-2.48967e-06
4.90714e-07
9.98257e-07
7.3391e-07
6.03021e-07
8.05335e-07
2.25079e-07
8.58521e-07
8.6818e-08
8.68077e-07
1.75298e-07
7.66946e-07
2.38853e-07
3.67111e-07
1.6199e-07
-3.68012e-07
1.29645e-07
-9.29677e-07
1.00946e-07
-1.12523e-06
8.48449e-08
-8.17471e-07
1.36458e-08
-6.21671e-07
-1.82817e-08
-4.26445e-07
-2.97819e-08
-2.25149e-07
-1.83105e-08
-3.14496e-07
5.00308e-08
1.29432e-07
1.07085e-07
-1.78653e-07
1.59384e-07
1.54343e-07
-1.93708e-07
8.23249e-07
-1.20839e-06
-1.66643e-06
9.98257e-07
1.60128e-06
1.82636e-06
1.91317e-06
2.08847e-06
2.32733e-06
2.48932e-06
2.61896e-06
2.71991e-06
2.80475e-06
2.8184e-06
2.80012e-06
2.77033e-06
2.75202e-06
2.80205e-06
2.90914e-06
3.06852e-06
2.87481e-06
1.66643e-06
)
;

boundaryField
{
    movingWall
    {
        type            calculated;
        value           uniform 0;
    }
    fixedWalls
    {
        type            calculated;
        value           uniform 0;
    }
    frontAndBack
    {
        type            empty;
        value           nonuniform 0();
    }
}


// ************************************************************************* //
