/*--------------------------------*- C++ -*----------------------------------*\
| =========                 |                                                 |
| \\      /  F ield         | OpenFOAM: The Open Source CFD Toolbox           |
|  \\    /   O peration     | Version:  5.x                                   |
|   \\  /    A nd           | Web:      www.OpenFOAM.org                      |
|    \\/     M anipulation  |                                                 |
\*---------------------------------------------------------------------------*/
FoamFile
{
    version     2.0;
    format      ascii;
    class       volScalarField;
    location    "8";
    object      p;
}
// * * * * * * * * * * * * * * * * * * * * * * * * * * * * * * * * * * * * * //

dimensions      [0 2 -2 0 0 0 0];

internalField   nonuniform List<scalar> 
400
(
1.39224e-10
-0.000339897
-0.000915239
-0.00138575
-0.00159198
-0.00158261
-0.00142918
-0.00134158
-0.00122906
-0.00106588
-0.000997004
-0.00102078
-0.0010509
-0.00106132
-0.00107778
-0.00105972
-0.000974851
-0.000779211
-0.000534398
0.000321537
-0.000229222
-0.000676755
-0.00132231
-0.00168232
-0.00180733
-0.00173655
-0.00147481
-0.00135784
-0.00127066
-0.00107913
-0.000995999
-0.00102646
-0.00107961
-0.00107631
-0.00109581
-0.00110619
-0.00113848
-0.00106041
-0.000960724
-0.000387863
-0.000864285
-0.00129421
-0.00176881
-0.00204345
-0.00205691
-0.00185819
-0.00158128
-0.00137501
-0.00123637
-0.00110236
-0.00104071
-0.0010335
-0.00106605
-0.0010585
-0.0011058
-0.00109804
-0.00112704
-0.00109304
-0.00104872
-0.000770988
-0.00129494
-0.00162252
-0.00193998
-0.00210225
-0.00202672
-0.00182625
-0.00157177
-0.00137052
-0.00125382
-0.00115017
-0.0010968
-0.00107627
-0.00109473
-0.00108212
-0.001106
-0.0010944
-0.00111342
-0.00107969
-0.00110814
-0.000985999
-0.00130677
-0.0015205
-0.00172472
-0.00182042
-0.00178418
-0.00164468
-0.00147194
-0.00132761
-0.00122956
-0.00115114
-0.00111848
-0.0010909
-0.00110377
-0.00108606
-0.00111464
-0.00110245
-0.0011282
-0.00110735
-0.00113369
-0.00106892
-0.00112937
-0.00128413
-0.00143946
-0.00153058
-0.00153401
-0.00146777
-0.00137269
-0.00128098
-0.00121405
-0.00115823
-0.00113565
-0.00110498
-0.00111506
-0.00109303
-0.00111582
-0.00109478
-0.0011233
-0.00109386
-0.00113606
-0.0011034
-0.0010114
-0.00111869
-0.00123405
-0.00131542
-0.00134249
-0.00132449
-0.00128224
-0.00123189
-0.00119171
-0.00115427
-0.00114039
-0.00111557
-0.00112467
-0.00110581
-0.00112424
-0.00110876
-0.00113247
-0.00111431
-0.00114846
-0.00111861
-0.000982417
-0.00105278
-0.00113394
-0.00119867
-0.00123142
-0.00123401
-0.00121733
-0.00118834
-0.00116775
-0.0011414
-0.00113471
-0.00110979
-0.00112153
-0.00109688
-0.00112214
-0.00109499
-0.00113068
-0.00109768
-0.00114884
-0.00111758
-0.000983547
-0.00103001
-0.00108741
-0.00113698
-0.00116875
-0.00118218
-0.00118226
-0.00117404
-0.00115931
-0.0011424
-0.00113873
-0.0011223
-0.00113047
-0.00111326
-0.00113019
-0.00110877
-0.00113648
-0.00110656
-0.00114764
-0.00110951
-0.000989435
-0.00102817
-0.00107053
-0.00110861
-0.00113332
-0.0011436
-0.00114506
-0.00113777
-0.00113273
-0.00111911
-0.00112156
-0.00110378
-0.00111731
-0.00109427
-0.00112077
-0.0010895
-0.00112964
-0.0010872
-0.00113979
-0.0010939
-0.000992549
-0.00103112
-0.001066
-0.00109528
-0.00111718
-0.00113138
-0.00113811
-0.00113926
-0.0011377
-0.00113138
-0.00113208
-0.00112185
-0.00113021
-0.00111595
-0.00113267
-0.00110699
-0.00113755
-0.00109606
-0.00115985
-0.00109612
-0.000990117
-0.00104768
-0.0010716
-0.00109497
-0.0011072
-0.00111217
-0.00111689
-0.00111303
-0.00111372
-0.00110489
-0.00110946
-0.00109684
-0.00110648
-0.00108869
-0.0011108
-0.00108308
-0.00112627
-0.00107823
-0.00112271
-0.00107868
-0.00103632
-0.00108899
-0.00108554
-0.00109717
-0.00110953
-0.0011224
-0.0011257
-0.00112736
-0.00112521
-0.00112352
-0.00112253
-0.00112019
-0.00112556
-0.00111679
-0.00113777
-0.00110347
-0.00112992
-0.00108182
-0.00114907
-0.00105913
-0.00109408
-0.00118238
-0.00109266
-0.0011215
-0.00112341
-0.00112006
-0.00111316
-0.00110468
-0.00110311
-0.00109834
-0.00110113
-0.00109688
-0.00109773
-0.00108948
-0.00108065
-0.00108388
-0.00111536
-0.00104707
-0.00107355
-0.00105057
-0.00113316
-0.00115913
-0.00111577
-0.00112514
-0.0011249
-0.00111248
-0.00110529
-0.00111039
-0.00110847
-0.00111643
-0.00110667
-0.00112608
-0.0011038
-0.0011237
-0.00114442
-0.00112033
-0.00117551
-0.00108818
-0.00117463
-0.00106882
-0.00125599
-0.0011809
-0.00113812
-0.00112658
-0.00113242
-0.00109951
-0.00111321
-0.0011034
-0.00111129
-0.0011047
-0.00110923
-0.0011035
-0.00110887
-0.00113179
-0.00109307
-0.0010675
-0.00107741
-0.00107479
-0.00108672
-0.00105314
-0.00106039
-0.00120316
-0.00114199
-0.00111465
-0.00112303
-0.00109569
-0.00110648
-0.00109431
-0.00110805
-0.00110835
-0.00112149
-0.00111608
-0.00111432
-0.0011445
-0.00108562
-0.00114664
-0.00116893
-0.00109017
-0.00118862
-0.00100835
-0.00101557
-0.00119738
-0.00113977
-0.00111137
-0.00111383
-0.00109248
-0.0010997
-0.0010988
-0.00110285
-0.00109997
-0.00109734
-0.00108081
-0.0010955
-0.00109352
-0.00111307
-0.00118034
-0.00112562
-0.00104241
-0.000989013
-0.00083635
-0.000985696
-0.00111378
-0.00113386
-0.00111824
-0.00110034
-0.00108547
-0.00108509
-0.0010935
-0.00109575
-0.00110154
-0.00112253
-0.0010719
-0.001157
-0.0010566
-0.00114547
-0.00117502
-0.00108875
-0.0012087
-0.00104426
-0.000588292
-0.0011305
-0.00108271
-0.00106617
-0.00113211
-0.00107404
-0.00108592
-0.00108293
-0.00108973
-0.00108747
-0.00109498
-0.00109206
-0.0010688
-0.00106009
-0.00102103
-0.00108143
-0.00111983
-0.00109643
-0.000870371
-0.000419211
0.000823311
)
;

boundaryField
{
    movingWall
    {
        type            zeroGradient;
    }
    fixedWalls
    {
        type            zeroGradient;
    }
    frontAndBack
    {
        type            empty;
    }
}


// ************************************************************************* //
