/*--------------------------------*- C++ -*----------------------------------*\
| =========                 |                                                 |
| \\      /  F ield         | OpenFOAM: The Open Source CFD Toolbox           |
|  \\    /   O peration     | Version:  5.x                                   |
|   \\  /    A nd           | Web:      www.OpenFOAM.org                      |
|    \\/     M anipulation  |                                                 |
\*---------------------------------------------------------------------------*/
FoamFile
{
    version     2.0;
    format      ascii;
    class       surfaceScalarField;
    location    "8";
    object      phi;
}
// * * * * * * * * * * * * * * * * * * * * * * * * * * * * * * * * * * * * * //

dimensions      [0 3 -1 0 0 0 0];

internalField   nonuniform List<scalar> 
760
(
-7.80509e-07
7.80509e-07
-1.84502e-06
1.06451e-06
-2.4767e-06
6.31682e-07
-2.70532e-06
2.28614e-07
-2.91444e-06
2.09127e-07
-2.72338e-06
-1.91066e-07
-2.57535e-06
-1.48028e-07
-2.59146e-06
1.6114e-08
-2.34121e-06
-2.50255e-07
-2.0962e-06
-2.45009e-07
-2.1129e-06
1.67007e-08
-2.19894e-06
8.60447e-08
-2.24622e-06
4.72726e-08
-2.23639e-06
-9.8238e-09
-2.27481e-06
3.84154e-08
-2.24736e-06
-2.7443e-08
-2.18712e-06
-6.02437e-08
-1.87175e-06
-3.15374e-07
-1.26406e-06
-6.07688e-07
-1.26406e-06
-9.6944e-07
1.74995e-06
-1.51531e-06
1.61038e-06
-2.00861e-06
1.12498e-06
-2.29155e-06
5.11556e-07
-2.1285e-06
4.60715e-08
-2.02684e-06
-2.9272e-07
-1.77261e-06
-4.02259e-07
-1.36907e-06
-3.87426e-07
-1.19732e-06
-4.22003e-07
-1.1168e-06
-3.25529e-07
-9.7118e-07
-1.28921e-07
-8.44831e-07
-4.03042e-08
-8.43495e-07
4.59363e-08
-8.72345e-07
1.90259e-08
-9.44173e-07
1.10243e-07
-9.50434e-07
-2.11815e-08
-1.01433e-06
3.65594e-09
-1.00777e-06
-3.21941e-07
-8.47505e-07
-7.67949e-07
-2.11156e-06
-6.28656e-07
2.37861e-06
-9.20448e-07
1.90217e-06
-1.04207e-06
1.2466e-06
-1.07008e-06
5.39572e-07
-1.01843e-06
-5.58205e-09
-9.09537e-07
-4.01613e-07
-7.56624e-07
-5.55172e-07
-5.95746e-07
-5.48304e-07
-5.28609e-07
-4.8914e-07
-4.65743e-07
-3.88395e-07
-3.6716e-07
-2.27504e-07
-2.72981e-07
-1.34483e-07
-2.03688e-07
-2.33564e-08
-1.53793e-07
-3.08691e-08
-1.08734e-07
6.51839e-08
-7.5408e-08
-5.45071e-08
-5.41041e-08
-1.7648e-08
-1.08515e-07
-2.6753e-07
-2.4066e-07
-6.35805e-07
-2.35222e-06
-7.54716e-08
2.45408e-06
-4.01122e-08
1.86682e-06
3.12989e-08
1.17519e-06
8.14852e-08
4.89386e-07
9.75019e-08
-2.15988e-08
8.1794e-08
-3.85905e-07
5.37323e-08
-5.2711e-07
2.28907e-08
-5.17462e-07
-1.19617e-08
-4.54288e-07
-4.98305e-08
-3.50527e-07
-5.71744e-08
-2.2016e-07
-5.21058e-08
-1.39552e-07
-4.64202e-08
-2.90419e-08
-3.9286e-08
-3.80033e-08
-3.24196e-08
5.83174e-08
-4.14942e-08
-4.54325e-08
-6.53173e-08
6.17509e-09
-1.35737e-07
-1.9711e-07
-1.40979e-07
-6.30562e-07
-2.4932e-06
3.4897e-07
2.10511e-06
6.04059e-07
1.61173e-06
7.4324e-07
1.036e-06
7.61089e-07
4.71537e-07
7.01385e-07
3.81055e-08
5.58807e-07
-2.43327e-07
3.93142e-07
-3.61446e-07
2.44459e-07
-3.6878e-07
1.11589e-07
-3.21418e-07
1.82118e-08
-2.57149e-07
-2.54735e-08
-1.76475e-07
-4.02796e-08
-1.24746e-07
-2.22403e-08
-4.70812e-08
-5.28655e-09
-5.4957e-08
2.46997e-08
2.83312e-08
2.77825e-08
-4.85153e-08
5.41668e-09
2.85409e-08
-2.51593e-08
-1.66534e-07
-3.02757e-08
-6.25446e-07
-2.52348e-06
5.0085e-07
1.60426e-06
8.17733e-07
1.29484e-06
9.65094e-07
8.88644e-07
9.59516e-07
4.77115e-07
8.47163e-07
1.50458e-07
6.75154e-07
-7.13176e-08
4.96147e-07
-1.82439e-07
3.46272e-07
-2.18904e-07
2.27727e-07
-2.02873e-07
1.48158e-07
-1.7758e-07
9.1831e-08
-1.20148e-07
6.26468e-08
-9.55616e-08
4.23069e-08
-2.67413e-08
2.9908e-08
-4.25581e-08
2.56796e-08
3.25596e-08
9.0524e-09
-3.18881e-08
5.20154e-09
3.23918e-08
-2.75767e-08
-1.33756e-07
-1.86381e-08
-6.34384e-07
-2.54212e-06
4.4165e-07
1.16261e-06
7.28288e-07
1.00821e-06
8.66815e-07
7.50117e-07
8.71214e-07
4.72715e-07
7.84772e-07
2.36901e-07
6.49449e-07
6.40047e-08
5.04929e-07
-3.79181e-08
3.78957e-07
-9.29325e-08
2.73246e-07
-9.7162e-08
1.97986e-07
-1.0232e-07
1.38803e-07
-6.09649e-08
1.06714e-07
-6.34731e-08
8.15426e-08
-1.5695e-09
6.87509e-08
-2.97665e-08
5.70014e-08
4.43091e-08
3.67513e-08
-1.1638e-08
1.38941e-08
5.52489e-08
-1.26276e-08
-1.07234e-07
-2.4952e-08
-6.2206e-07
-2.56707e-06
3.30027e-07
8.32579e-07
5.55254e-07
7.8298e-07
6.70281e-07
6.35089e-07
6.87779e-07
4.55217e-07
6.33302e-07
2.91378e-07
5.44124e-07
1.53183e-07
4.41058e-07
6.51473e-08
3.48857e-07
-7.31442e-10
2.63186e-07
-1.14909e-08
1.97182e-07
-3.63161e-08
1.42273e-07
-6.05584e-09
1.06291e-07
-2.74913e-08
7.72717e-08
2.745e-08
5.98261e-08
-1.23209e-08
4.53231e-08
5.88121e-08
3.56996e-08
-2.0145e-09
2.56811e-08
6.52675e-08
1.71163e-08
-9.86697e-08
2.19811e-08
-6.26925e-07
-2.54509e-06
2.32603e-07
5.99977e-07
4.13688e-07
6.01894e-07
5.26835e-07
5.21942e-07
5.65549e-07
4.16503e-07
5.48264e-07
3.08663e-07
4.93138e-07
2.08308e-07
4.19996e-07
1.3829e-07
3.43922e-07
7.53429e-08
2.7441e-07
5.80214e-08
2.2112e-07
1.69737e-08
1.75982e-07
3.90822e-08
1.45686e-07
2.80499e-09
1.21919e-07
5.12162e-08
9.97867e-08
9.81168e-09
8.0193e-08
7.84058e-08
5.13378e-08
2.68407e-08
2.99099e-08
8.66954e-08
-7.21361e-09
-6.15461e-08
-1.41017e-08
-6.20037e-07
-2.55919e-06
2.05626e-07
3.94351e-07
3.28303e-07
4.79217e-07
3.92198e-07
4.58047e-07
4.12299e-07
3.96403e-07
3.9588e-07
3.25083e-07
3.6908e-07
2.35107e-07
3.27208e-07
1.80162e-07
2.82543e-07
1.20008e-07
2.32775e-07
1.0779e-07
1.87279e-07
6.2469e-08
1.47906e-07
7.84556e-08
1.10833e-07
3.98777e-08
8.88374e-08
7.32119e-08
6.15753e-08
3.70738e-08
5.99036e-08
8.00775e-08
6.50359e-08
2.17084e-08
5.07491e-08
1.00982e-07
4.36275e-08
-5.44245e-08
1.61333e-08
-5.92543e-07
-2.54306e-06
1.77817e-07
2.16535e-07
3.02024e-07
3.5501e-07
3.91751e-07
3.6832e-07
4.2008e-07
3.68073e-07
4.11577e-07
3.33586e-07
3.65218e-07
2.81466e-07
3.13611e-07
2.31769e-07
2.60689e-07
1.7293e-07
2.22764e-07
1.45715e-07
1.86105e-07
9.91281e-08
1.66997e-07
9.75637e-08
1.44835e-07
6.20395e-08
1.38725e-07
7.9322e-08
1.27605e-07
4.81935e-08
1.05196e-07
1.02487e-07
6.2385e-08
6.45189e-08
5.89144e-08
1.04453e-07
4.08026e-09
4.0968e-10
-2.04258e-08
-5.68036e-07
-2.56348e-06
3.0662e-07
-9.00852e-08
2.95999e-07
3.65631e-07
2.81846e-07
3.82472e-07
2.90315e-07
3.59604e-07
3.01352e-07
3.2255e-07
3.09062e-07
2.73756e-07
2.85777e-07
2.55054e-07
2.52944e-07
2.05763e-07
2.08985e-07
1.89673e-07
1.7002e-07
1.38093e-07
1.30305e-07
1.37279e-07
9.30462e-08
9.92981e-08
6.25601e-08
1.09808e-07
1.51878e-09
1.09235e-07
3.52489e-08
6.87572e-08
-4.56435e-09
1.04332e-07
3.3556e-08
6.63324e-08
6.33323e-08
-2.93666e-08
3.31473e-08
-5.37851e-07
-2.53033e-06
3.62653e-07
-4.52739e-07
3.74582e-07
3.53702e-07
3.62263e-07
3.94792e-07
2.4756e-07
4.74307e-07
1.57839e-07
4.12271e-07
1.07143e-07
3.24453e-07
9.82121e-08
2.63984e-07
8.89747e-08
2.15e-07
1.05025e-07
1.73623e-07
9.14454e-08
1.51673e-07
1.14198e-07
1.14526e-07
7.51816e-08
1.38314e-07
1.33046e-07
5.19436e-08
1.19016e-07
1.23266e-07
1.21521e-07
6.62518e-08
1.03061e-07
1.22793e-07
1.07119e-07
6.22746e-08
7.10014e-08
6.7506e-09
-2.15661e-08
-4.45284e-07
-2.5519e-06
1.72115e-07
-6.24853e-07
2.269e-07
2.98916e-07
3.44891e-07
2.76801e-07
4.80008e-07
3.3919e-07
5.35317e-07
3.56962e-07
4.87316e-07
3.72454e-07
4.2802e-07
3.2328e-07
3.49563e-07
2.93457e-07
2.87205e-07
2.35982e-07
2.25726e-07
2.13152e-07
1.84676e-07
1.55576e-07
1.40449e-07
1.82541e-07
5.98714e-08
1.32521e-07
2.19598e-08
1.61177e-07
-1.01047e-07
1.89259e-07
-2.78171e-07
2.99916e-07
-7.1538e-08
-1.44358e-07
4.33909e-08
-1.08178e-07
4.49961e-08
-4.46889e-07
-2.5069e-06
9.39714e-08
-7.18825e-07
1.16909e-07
2.75979e-07
-8.62559e-08
4.79966e-07
-1.20052e-07
3.72986e-07
-1.48636e-07
3.85546e-07
-9.82422e-08
3.2206e-07
-1.14567e-07
3.39605e-07
-9.23314e-08
2.71221e-07
-9.58792e-08
2.39529e-07
-8.17525e-08
1.99025e-07
-9.54798e-08
1.69303e-07
-1.23313e-07
2.10375e-07
-8.26696e-08
9.1878e-08
-1.97877e-07
2.76384e-07
3.93469e-08
-4.79646e-08
1.31249e-07
2.08014e-07
1.86028e-08
-3.17122e-08
-1.05481e-07
1.59054e-08
-7.22446e-08
-4.80126e-07
-2.57915e-06
7.72041e-08
-7.96029e-07
7.72852e-08
2.75898e-07
8.85744e-08
4.68677e-07
2.31603e-07
2.29957e-07
2.4931e-07
3.67839e-07
2.9949e-07
2.71881e-07
3.82523e-07
2.56571e-07
4.0944e-07
2.44305e-07
4.66049e-07
1.8292e-07
4.44013e-07
2.21061e-07
4.74818e-07
1.38498e-07
3.9511e-07
2.90082e-07
4.5829e-07
2.86985e-08
3.37252e-07
3.97422e-07
2.08326e-07
8.09612e-08
1.75291e-07
2.4105e-07
9.01782e-08
5.34002e-08
3.5742e-08
7.03415e-08
6.10901e-08
-5.05474e-07
-2.51806e-06
-3.0038e-07
-4.95649e-07
-5.58322e-07
5.3384e-07
-3.6299e-07
2.73345e-07
-3.70701e-07
2.37668e-07
-3.26098e-07
3.23236e-07
-3.05564e-07
2.51346e-07
-2.73793e-07
2.248e-07
-2.58655e-07
2.29167e-07
-2.78651e-07
2.02916e-07
-2.45508e-07
1.87918e-07
-2.68036e-07
1.61027e-07
-1.81481e-07
2.03527e-07
-2.48499e-07
9.57164e-08
-1.64884e-07
3.13807e-07
-1.20162e-07
3.62396e-08
-2.50219e-07
3.71107e-07
1.5068e-07
-3.47499e-07
1.56085e-07
6.49363e-08
2.21557e-08
-3.71545e-07
-2.4959e-06
-8.96832e-08
-4.05966e-07
2.90664e-07
1.53493e-07
2.74382e-07
2.89627e-07
2.77475e-07
2.34575e-07
3.4135e-07
2.5936e-07
3.75859e-07
2.16837e-07
4.21901e-07
1.78758e-07
4.79242e-07
1.71827e-07
4.91455e-07
1.90703e-07
5.28769e-07
1.50604e-07
5.08637e-07
1.81159e-07
5.52842e-07
1.59322e-07
5.67984e-07
8.05743e-08
5.09039e-07
3.72752e-07
6.21732e-07
-7.64537e-08
5.63415e-07
4.29424e-07
4.5605e-07
-2.40134e-07
2.08173e-07
3.12813e-07
2.34112e-07
-3.97484e-07
-2.26179e-06
-7.82664e-07
3.76699e-07
-8.92482e-07
2.6331e-07
-8.69942e-07
2.67088e-07
-7.88245e-07
1.52878e-07
-7.08035e-07
1.7915e-07
-6.34184e-07
1.42986e-07
-5.96327e-07
1.40901e-07
-5.59405e-07
1.34905e-07
-4.96619e-07
1.27917e-07
-4.64998e-07
1.18983e-07
-3.78449e-07
9.46094e-08
-3.20842e-07
1.01714e-07
-3.05543e-07
6.52752e-08
-1.0004e-07
1.67249e-07
-2.95743e-07
1.1925e-07
7.57355e-09
1.26108e-07
-1.95559e-07
-3.7001e-08
1.46894e-07
-2.96401e-08
7.12025e-07
-9.62615e-07
-1.54977e-06
3.76699e-07
6.40009e-07
9.07096e-07
1.05997e-06
1.23912e-06
1.38211e-06
1.52301e-06
1.65792e-06
1.78583e-06
1.90482e-06
1.99943e-06
2.10114e-06
2.16642e-06
2.33366e-06
2.45291e-06
2.57902e-06
2.54202e-06
2.51238e-06
1.54977e-06
)
;

boundaryField
{
    movingWall
    {
        type            calculated;
        value           uniform 0;
    }
    fixedWalls
    {
        type            calculated;
        value           uniform 0;
    }
    frontAndBack
    {
        type            empty;
        value           nonuniform 0();
    }
}


// ************************************************************************* //
