/*--------------------------------*- C++ -*----------------------------------*\
| =========                 |                                                 |
| \\      /  F ield         | OpenFOAM: The Open Source CFD Toolbox           |
|  \\    /   O peration     | Version:  5.x                                   |
|   \\  /    A nd           | Web:      www.OpenFOAM.org                      |
|    \\/     M anipulation  |                                                 |
\*---------------------------------------------------------------------------*/
FoamFile
{
    version     2.0;
    format      ascii;
    class       volVectorField;
    location    "8";
    object      U;
}
// * * * * * * * * * * * * * * * * * * * * * * * * * * * * * * * * * * * * * //

dimensions      [0 1 -1 0 0 0 0];

internalField   nonuniform List<vector> 
400
(
(-0.00637792 0.00979274 0)
(-0.0262237 0.0170373 0)
(-0.0508823 0.00400597 0)
(-0.0511209 -0.000667157 0)
(-0.0571386 0.0062046 0)
(-0.0582971 -0.00432667 0)
(-0.0479427 -0.000394893 0)
(-0.0535258 0.00585883 0)
(-0.051232 -0.00559198 0)
(-0.041727 -0.00721187 0)
(-0.0409472 0.000315706 0)
(-0.0437696 0.00134408 0)
(-0.0452952 -0.00193778 0)
(-0.0448141 -0.00315401 0)
(-0.045946 -0.00199608 0)
(-0.0459425 -0.00207543 0)
(-0.0454426 -0.003203 0)
(-0.0407762 -0.0063691 0)
(-0.0386281 -0.00993945 0)
(-0.00586101 -0.0176619 0)
(-0.0141974 0.0231023 0)
(-0.0268678 0.0245145 0)
(-0.0374441 0.0190179 0)
(-0.0444438 0.00876828 0)
(-0.0449782 0.00129008 0)
(-0.0407179 -0.00413422 0)
(-0.0374102 -0.0058419 0)
(-0.0319249 -0.00516994 0)
(-0.0249354 -0.00507056 0)
(-0.022263 -0.0029902 0)
(-0.0212304 0.000432359 0)
(-0.017816 0.0022339 0)
(-0.0172301 0.00356205 0)
(-0.0160373 0.00266289 0)
(-0.0194735 0.00339662 0)
(-0.0173871 0.000745996 0)
(-0.0222389 0.000160143 0)
(-0.0170921 -0.00806814 0)
(-0.0262075 -0.0174101 0)
(-0.00349589 -0.0380066 0)
(-0.00984687 0.042095 0)
(-0.0174474 0.0355552 0)
(-0.0212867 0.0233276 0)
(-0.0216275 0.00980373 0)
(-0.0206759 -1.3413e-05 0)
(-0.0186725 -0.00836183 0)
(-0.016136 -0.0113376 0)
(-0.0132987 -0.0110417 0)
(-0.0113526 -0.0110342 0)
(-0.00955228 -0.00945651 0)
(-0.00902578 -0.00572567 0)
(-0.00546471 -0.00376605 0)
(-0.00615192 -0.00145625 0)
(-0.00137434 -0.00173409 0)
(-0.0053597 0.00111931 0)
(0.00146644 -0.00144118 0)
(-0.00487826 0.000103438 0)
(0.00295907 -0.0036716 0)
(-0.00799531 -0.0111411 0)
(-6.43156e-05 -0.0439337 0)
(-0.00233069 0.0525215 0)
(-0.00131232 0.0409097 0)
(-0.000549396 0.0263188 0)
(0.00152467 0.0114811 0)
(0.00211181 -0.000176173 0)
(0.00227844 -0.00753284 0)
(0.00143866 -0.0105397 0)
(0.000946663 -0.0105709 0)
(-0.000237175 -0.00929136 0)
(-0.00017291 -0.00687722 0)
(-0.00191439 -0.00387435 0)
(-0.000263038 -0.00203916 0)
(-0.00209583 0.000344251 0)
(0.000489793 0.000298212 0)
(-0.00230074 0.00161893 0)
(0.00121399 -0.000715395 0)
(-0.00313732 -0.00070796 0)
(0.000906946 -0.00635154 0)
(-0.00708915 -0.0139239 0)
(0.00232632 -0.0485969 0)
(0.00305774 0.049209 0)
(0.00965437 0.0371945 0)
(0.0133878 0.0235821 0)
(0.0155594 0.0100105 0)
(0.015254 -0.000457737 0)
(0.0133977 -0.00678786 0)
(0.00976145 -0.00952187 0)
(0.00650622 -0.00945146 0)
(0.00311834 -0.00825896 0)
(0.00158605 -0.00654606 0)
(-0.000992832 -0.00452305 0)
(9.99947e-05 -0.0032434 0)
(-0.00194964 -0.00138702 0)
(0.00124608 -0.00168106 0)
(-0.0015562 0.00058901 0)
(0.00273841 -0.00125732 0)
(-0.00184173 0.000877998 0)
(0.00215754 -0.00209295 0)
(-0.00342893 -0.011024 0)
(0.0025257 -0.0491753 0)
(0.0052399 0.0374724 0)
(0.0136357 0.0292329 0)
(0.0181207 0.019247 0)
(0.0197643 0.00954057 0)
(0.0185402 0.00204208 0)
(0.0157474 -0.00275988 0)
(0.0117846 -0.00497528 0)
(0.00859074 -0.00540665 0)
(0.00526355 -0.00486167 0)
(0.0041761 -0.00401811 0)
(0.00139263 -0.00273595 0)
(0.00258828 -0.00187072 0)
(-0.00038822 -0.000561802 0)
(0.00233654 -0.000460268 0)
(-0.00137032 0.000629503 0)
(0.0026158 -0.000493445 0)
(-0.00239224 0.000399929 0)
(0.0027154 -0.00407654 0)
(-0.00410465 -0.013542 0)
(0.00355716 -0.0507034 0)
(0.00471669 0.0265923 0)
(0.0121348 0.0224162 0)
(0.0163172 0.0160774 0)
(0.0177942 0.00934568 0)
(0.0168575 0.00392684 0)
(0.0146692 -1.02473e-05 0)
(0.0115967 -0.00220321 0)
(0.00901236 -0.00326713 0)
(0.00614939 -0.00319328 0)
(0.00512642 -0.0031419 0)
(0.00242004 -0.00206515 0)
(0.00349199 -0.00210279 0)
(0.000409832 -0.00058529 0)
(0.00317918 -0.00139794 0)
(-0.000742183 0.000569715 0)
(0.00331001 -0.000960355 0)
(-0.00208192 0.000772113 0)
(0.00279675 -0.00170649 0)
(-0.00347645 -0.0118782 0)
(0.00269793 -0.0508028 0)
(0.00345125 0.0191936 0)
(0.00922776 0.0171118 0)
(0.0125126 0.0131469 0)
(0.0138899 0.00893586 0)
(0.0134139 0.00515026 0)
(0.0120016 0.00241171 0)
(0.0098327 0.000699998 0)
(0.00815161 -0.000288725 0)
(0.00562848 -0.00051944 0)
(0.00525316 -0.000738895 0)
(0.00224648 -0.000217392 0)
(0.00384412 -0.000225576 0)
(9.90444e-06 0.000551771 0)
(0.00344818 0.000376134 0)
(-0.0014059 0.00133494 0)
(0.00354159 0.000608579 0)
(-0.00241846 0.0015749 0)
(0.00372317 -0.00221945 0)
(-0.00327301 -0.0129174 0)
(0.00437138 -0.0512208 0)
(0.00238886 0.0139089 0)
(0.00657272 0.0139943 0)
(0.00964217 0.0118863 0)
(0.0111526 0.00888735 0)
(0.0112976 0.00615658 0)
(0.0106196 0.00342319 0)
(0.00913744 0.00169403 0)
(0.00784019 0.000233862 0)
(0.0058165 -2.02018e-05 0)
(0.00546929 -0.000875457 0)
(0.00303671 -8.40378e-05 0)
(0.0043687 -0.00103834 0)
(0.00107497 0.000409757 0)
(0.00418433 -0.000991707 0)
(-0.000573871 0.000838899 0)
(0.00415598 -0.000738045 0)
(-0.00243275 0.000873909 0)
(0.00390552 -0.00205104 0)
(-0.00434181 -0.0125485 0)
(0.00395618 -0.0512172 0)
(0.00216835 0.00995225 0)
(0.00571457 0.00976765 0)
(0.00723975 0.00867794 0)
(0.00821733 0.00744168 0)
(0.00815293 0.00600648 0)
(0.00780025 0.0051279 0)
(0.00687671 0.00412997 0)
(0.00646542 0.00307303 0)
(0.00459695 0.00258393 0)
(0.00505062 0.00169985 0)
(0.0020726 0.0018446 0)
(0.00423504 0.00121273 0)
(-0.000190554 0.00186083 0)
(0.00413573 0.00150627 0)
(-0.00203646 0.00254289 0)
(0.00482544 0.00200612 0)
(-0.00267022 0.00281247 0)
(0.00512314 -0.000148277 0)
(-0.00378776 -0.0115268 0)
(0.00464766 -0.0503852 0)
(0.00201702 0.00586071 0)
(0.00473141 0.00970534 0)
(0.00725526 0.00975884 0)
(0.00830962 0.00851385 0)
(0.00843628 0.00674084 0)
(0.00797365 0.00389133 0)
(0.0066601 0.00268047 0)
(0.00598887 0.00133141 0)
(0.00434036 0.00136404 0)
(0.00479377 0.000492025 0)
(0.00239384 0.00098357 0)
(0.00460054 0.000130087 0)
(0.000846981 0.000764988 0)
(0.00508783 -0.000280632 0)
(-0.000415818 0.000363243 0)
(0.005079 -0.00132354 0)
(-0.00298434 0.000966905 0)
(0.00579752 -0.00226987 0)
(-0.00577029 -0.0131792 0)
(0.00523635 -0.0519005 0)
(0.00449411 0.00326425 0)
(0.00705013 0.00451525 0)
(0.00520812 0.0048335 0)
(0.0058315 0.0059278 0)
(0.00592464 0.00676871 0)
(0.0063119 0.00780605 0)
(0.00584038 0.00703377 0)
(0.00585004 0.00606822 0)
(0.0040087 0.00489618 0)
(0.00465639 0.00388096 0)
(0.00182361 0.00328576 0)
(0.00370958 0.00268821 0)
(-0.000292052 0.00276281 0)
(0.00308456 0.00252491 0)
(-0.00307815 0.00414768 0)
(0.00477972 0.00423788 0)
(-0.00508338 0.00347673 0)
(0.00677743 0.00231032 0)
(-0.00472328 -0.00839503 0)
(0.0063459 -0.0503068 0)
(0.00596021 -0.00709958 0)
(0.00767819 0.0106033 0)
(0.00800145 0.0103234 0)
(0.00625305 0.00884275 0)
(0.00359418 0.00607797 0)
(0.00255385 0.00267418 0)
(0.00185929 0.00266403 0)
(0.00200899 0.00160215 0)
(0.00163382 0.00218316 0)
(0.0026106 0.00114881 0)
(0.000973511 0.00176769 0)
(0.00374289 0.000850045 0)
(-0.000918128 0.00118687 0)
(0.0065793 0.00135514 0)
(-0.00226586 -0.00182684 0)
(0.00765613 -0.00048646 0)
(-0.00406191 -0.00103487 0)
(0.00898538 -0.0036683 0)
(-0.0067667 -0.0144459 0)
(0.0062287 -0.0509784 0)
(-0.0002118 -0.011512 0)
(0.00613048 0.00245872 0)
(0.00410532 0.00582423 0)
(0.00869823 0.00951054 0)
(0.0109443 0.0100261 0)
(0.0105989 0.0105581 0)
(0.0088695 0.00826877 0)
(0.00850306 0.00752718 0)
(0.00521754 0.00522025 0)
(0.00651597 0.00543045 0)
(0.00225901 0.00318924 0)
(0.00534431 0.00520435 0)
(7.10271e-05 0.0011828 0)
(0.00242916 0.00411053 0)
(-0.00148156 0.00499881 0)
(-0.00237184 0.00588763 0)
(-0.00958879 0.00386819 0)
(0.00724754 0.0040661 0)
(-0.00586882 -0.00178807 0)
(0.00792448 -0.050061 0)
(-0.00576258 -0.0124306 0)
(0.00909912 0.0104633 0)
(-0.00388553 0.00498716 0)
(9.81165e-05 0.00435979 0)
(-0.00484165 0.00443379 0)
(-0.000879288 0.00411962 0)
(-0.00291666 0.0046964 0)
(-0.00188243 0.0037162 0)
(-0.00163204 0.00384372 0)
(-0.00242872 0.00254098 0)
(-0.000569943 0.00272539 0)
(-0.0036092 0.0014836 0)
(-0.000877364 0.00381306 0)
(-0.00268128 0.00180648 0)
(-0.00564712 0.00163274 0)
(0.00753635 0.00517321 0)
(-0.00304954 -0.0104575 0)
(0.00413953 -0.00891447 0)
(-0.00922938 -0.0178938 0)
(0.00699093 -0.0519662 0)
(0.0009651 -0.0186968 0)
(0.00252575 0.000315702 0)
(0.000554917 0.0137605 0)
(0.00283437 0.01027 0)
(0.00592254 0.0106096 0)
(0.00470046 0.0090831 0)
(0.00663852 0.00846269 0)
(0.00920226 0.00738708 0)
(0.00668103 0.00573445 0)
(0.0124385 0.00584391 0)
(0.00489199 0.00426093 0)
(0.0145455 0.00753347 0)
(0.00128264 -7.64825e-05 0)
(0.0162124 0.0096785 0)
(-0.0020251 -0.00316084 0)
(0.0106673 0.00410738 0)
(-0.0040627 0.00965564 0)
(0.00789041 0.00971361 0)
(-0.00666904 0.000592635 0)
(0.00942521 -0.0499858 0)
(0.000687848 -0.0104335 0)
(-0.0141315 0.0104701 0)
(-0.00659441 0.00537559 0)
(-0.0076662 -0.000735548 0)
(-0.00789468 0.0044458 0)
(-0.00445388 0.00172389 0)
(-0.00837654 0.00205548 0)
(-0.0020683 0.00260478 0)
(-0.00870501 0.00171006 0)
(-0.00212601 0.00263783 0)
(-0.00804929 0.000922537 0)
(-0.00249315 0.00337734 0)
(-0.00441157 0.00110578 0)
(-0.00631572 0.00546416 0)
(0.000556623 0.00626081 0)
(-0.00597755 0.00460649 0)
(-0.00461512 -0.00810435 0)
(0.0115565 -0.00725406 0)
(-0.0064996 -0.0230367 0)
(0.00783732 -0.0532034 0)
(-0.00919791 -0.0105644 0)
(0.00474249 0.0100659 0)
(0.00813877 0.00564542 0)
(0.00278745 0.0101207 0)
(0.00774774 0.00826915 0)
(0.00651692 0.00816168 0)
(0.0079762 0.00673835 0)
(0.00927537 0.00627639 0)
(0.00951728 0.00634749 0)
(0.0104279 0.00518264 0)
(0.0104179 0.00604228 0)
(0.0105428 0.00531345 0)
(0.0109174 0.00316609 0)
(0.0123564 0.00779253 0)
(0.00853388 -0.00495052 0)
(0.0148961 0.0102418 0)
(0.0086525 -0.0047918 0)
(0.0102676 0.0104464 0)
(-0.00263693 0.0102128 0)
(0.0130683 -0.0459236 0)
(-0.0208109 -0.00451949 0)
(-0.0124246 -0.0032927 0)
(-0.0221258 0.00534292 0)
(-0.0118671 -0.000824067 0)
(-0.0195481 0.00216185 0)
(-0.00849945 0.000708347 0)
(-0.0171167 0.000689228 0)
(-0.00705606 0.000772312 0)
(-0.0153249 0.00122378 0)
(-0.0042162 0.000602785 0)
(-0.0152469 0.000592587 0)
(0.00134066 0.00079171 0)
(-0.015598 -0.00055886 0)
(0.00488369 0.00675397 0)
(-0.00959079 0.00149519 0)
(-0.00274873 0.00676559 0)
(0.00327332 -0.00443244 0)
(-0.0124738 -4.55255e-05 0)
(0.0180722 -0.0288457 0)
(0.0136739 -0.0515088 0)
(0.000550566 0.0180376 0)
(0.0152922 0.0135184 0)
(0.0111313 0.00617971 0)
(0.0232119 0.00667551 0)
(0.0212005 0.00536283 0)
(0.0269989 0.0049507 0)
(0.02872 0.00476844 0)
(0.0315511 0.00461995 0)
(0.0355068 0.00405614 0)
(0.0349857 0.00433596 0)
(0.0416342 0.00359276 0)
(0.0384554 0.00334444 0)
(0.0451554 0.00374259 0)
(0.0438995 0.000294129 0)
(0.0469349 0.00389194 0)
(0.050876 -0.00121599 0)
(0.0494883 0.00276136 0)
(0.0524037 -0.000428606 0)
(0.0428323 -0.0046495 0)
(0.0270804 -0.00156662 0)
)
;

boundaryField
{
    movingWall
    {
        type            fixedValue;
        value           uniform (1 0 0);
    }
    fixedWalls
    {
        type            noSlip;
    }
    frontAndBack
    {
        type            empty;
    }
}


// ************************************************************************* //
