/*--------------------------------*- C++ -*----------------------------------*\
| =========                 |                                                 |
| \\      /  F ield         | OpenFOAM: The Open Source CFD Toolbox           |
|  \\    /   O peration     | Version:  5.x                                   |
|   \\  /    A nd           | Web:      www.OpenFOAM.org                      |
|    \\/     M anipulation  |                                                 |
\*---------------------------------------------------------------------------*/
FoamFile
{
    version     2.0;
    format      ascii;
    class       surfaceScalarField;
    location    "17.7";
    object      phi;
}
// * * * * * * * * * * * * * * * * * * * * * * * * * * * * * * * * * * * * * //

dimensions      [0 3 -1 0 0 0 0];

internalField   nonuniform List<scalar> 
760
(
-1.32819e-06
1.32819e-06
-2.285e-06
9.5681e-07
-2.71252e-06
4.27519e-07
-2.98092e-06
2.68404e-07
-3.05907e-06
7.81481e-08
-3.1391e-06
8.00341e-08
-3.13249e-06
-6.61287e-09
-3.16439e-06
3.18996e-08
-3.14204e-06
-2.2354e-08
-3.16274e-06
2.07073e-08
-3.13013e-06
-3.26119e-08
-3.1214e-06
-8.72935e-09
-3.05509e-06
-6.63113e-08
-3.01424e-06
-4.08539e-08
-2.95209e-06
-6.21428e-08
-2.8802e-06
-7.18928e-08
-2.76505e-06
-1.15152e-07
-2.33482e-06
-4.30231e-07
-1.522e-06
-8.12814e-07
-1.522e-06
-7.90123e-07
2.11831e-06
-1.17986e-06
1.34654e-06
-1.35901e-06
6.0667e-07
-1.38031e-06
2.89705e-07
-1.40598e-06
1.03817e-07
-1.39995e-06
7.40047e-08
-1.41126e-06
4.70024e-09
-1.41826e-06
3.88981e-08
-1.44802e-06
7.4084e-09
-1.46692e-06
3.96108e-08
-1.50262e-06
3.08094e-09
-1.4785e-06
-3.28453e-08
-1.44765e-06
-9.71612e-08
-1.40244e-06
-8.6067e-08
-1.4082e-06
-5.63806e-08
-1.39977e-06
-8.0319e-08
-1.35324e-06
-1.61687e-07
-1.42942e-06
-3.54049e-07
-1.1159e-06
-1.12634e-06
-2.6379e-06
-3.83238e-07
2.50155e-06
-5.86859e-07
1.55016e-06
-5.63051e-07
5.82862e-07
-5.34328e-07
2.60981e-07
-5.33446e-07
1.02935e-07
-5.3004e-07
7.05989e-08
-5.73892e-07
4.85517e-08
-6.13072e-07
7.80781e-08
-6.72362e-07
6.66989e-08
-7.03965e-07
7.12137e-08
-7.15666e-07
1.47823e-08
-6.95398e-07
-5.31139e-08
-7.05483e-07
-8.70759e-08
-7.49377e-07
-4.21731e-08
-7.2263e-07
-8.31278e-08
-6.64731e-07
-1.38218e-07
-3.70944e-07
-4.55475e-07
-2.69909e-07
-4.55083e-07
-3.89828e-07
-1.00642e-06
-3.02773e-06
-2.28404e-07
2.72995e-06
-2.76156e-07
1.59792e-06
-2.3016e-07
5.36866e-07
-1.81227e-07
2.12048e-07
-1.77986e-07
9.96934e-08
-1.925e-07
8.51134e-08
-2.40242e-07
9.62932e-08
-2.73123e-07
1.1096e-07
-3.06692e-07
1.00268e-07
-3.1042e-07
7.49416e-08
-3.07668e-07
1.20301e-08
-3.50441e-07
-1.03411e-08
-3.57829e-07
-7.96874e-08
-4.48152e-07
4.81496e-08
-6.1561e-07
8.433e-08
-6.80508e-07
-7.33196e-08
-6.67414e-07
-4.68569e-07
-4.78062e-07
-6.44435e-07
-2.3877e-07
-1.24571e-06
-3.2665e-06
-7.43023e-08
2.80425e-06
-1.09213e-07
1.63283e-06
-7.06297e-08
4.98283e-07
-1.39452e-08
1.55363e-07
-2.43104e-08
1.10059e-07
-5.96054e-08
1.20408e-07
-8.98582e-08
1.26546e-07
-1.13952e-07
1.35053e-07
-1.37631e-07
1.23947e-07
-1.55855e-07
9.3165e-08
-1.70104e-07
2.62794e-08
-1.78696e-07
-1.74923e-09
-1.44133e-07
-1.1425e-07
-2.5049e-07
1.54506e-07
-2.49143e-07
8.29832e-08
-2.42019e-07
-8.04437e-08
-2.10807e-07
-4.9978e-07
-7.2027e-08
-7.83216e-07
-7.01514e-08
-1.24758e-06
-3.33665e-06
-7.54027e-08
2.87966e-06
-6.49735e-08
1.6224e-06
-3.92241e-08
4.72534e-07
-1.92756e-08
1.35415e-07
-5.24456e-08
1.43229e-07
-5.84715e-08
1.26434e-07
-7.4276e-08
1.4235e-07
-1.0482e-07
1.65597e-07
-1.09368e-07
1.28495e-07
-1.02336e-07
8.61333e-08
-1.93899e-07
1.17843e-07
-2.8089e-07
8.52418e-08
-1.10168e-07
-2.84973e-07
-7.03819e-08
1.1472e-07
-1.55132e-08
2.81145e-08
-1.565e-08
-8.03068e-08
-2.56604e-07
-2.58826e-07
-1.81916e-07
-8.57904e-07
-3.47255e-08
-1.39477e-06
-3.37138e-06
1.28688e-08
2.86679e-06
2.98688e-08
1.6054e-06
2.58576e-08
4.76545e-07
6.81568e-09
1.54457e-07
2.14032e-08
1.28641e-07
3.55748e-09
1.4428e-07
-2.32502e-08
1.69158e-07
-6.17813e-08
2.04128e-07
-1.04729e-07
1.71443e-07
-9.63884e-08
7.77925e-08
-6.47039e-08
8.61582e-08
-2.50887e-08
4.56266e-08
9.10851e-08
-4.01146e-07
-6.24867e-08
2.68292e-07
-1.97264e-08
-1.46457e-08
6.74312e-08
-1.67464e-07
-6.16623e-08
-1.29733e-07
3.62704e-08
-9.55837e-07
2.61156e-08
-1.38462e-06
-3.34526e-06
3.50224e-09
2.86329e-06
3.85507e-08
1.57035e-06
7.53453e-08
4.3975e-07
7.18317e-08
1.5797e-07
4.62343e-08
1.54239e-07
1.14775e-08
1.79037e-07
-7.55245e-08
2.5616e-07
-1.0495e-07
2.33554e-07
-1.01438e-07
1.67931e-07
-2.64398e-07
2.40753e-07
-3.659e-07
1.8766e-07
-1.06181e-07
-2.14093e-07
-3.46557e-09
-5.03861e-07
-1.63164e-07
4.27991e-07
-2.13303e-07
3.54927e-08
-1.00806e-07
-2.79961e-07
-2.50868e-08
-2.05452e-07
-1.14157e-08
-9.69508e-07
-3.50251e-08
-1.36101e-06
-3.38029e-06
6.31548e-08
2.80013e-06
6.73571e-08
1.56615e-06
5.79441e-08
4.49163e-07
1.51452e-08
2.00769e-07
3.77461e-08
1.31638e-07
1.08201e-07
1.08582e-07
1.48723e-07
2.15638e-07
2.47759e-07
1.34518e-07
3.38396e-07
7.72934e-08
1.8745e-07
3.91699e-07
-3.22784e-08
4.07389e-07
-4.19379e-08
-2.04434e-07
-5.17948e-08
-4.94004e-07
-1.73212e-07
5.49408e-07
4.21746e-08
-1.79894e-07
2.25059e-07
-4.62846e-07
1.87246e-07
-1.67639e-07
2.49733e-07
-1.03199e-06
1.5766e-08
-1.12704e-06
-3.36452e-06
6.09093e-08
2.73922e-06
1.13674e-07
1.51338e-06
1.14124e-07
4.48713e-07
1.60066e-07
1.54827e-07
1.38151e-07
1.53553e-07
1.43906e-07
1.02826e-07
1.87716e-07
1.71829e-07
5.24108e-08
2.69823e-07
-1.65658e-07
2.95363e-07
-3.03156e-07
5.29197e-07
-2.55087e-07
3.59319e-07
-2.58331e-07
-2.01189e-07
-3.23227e-07
-4.29108e-07
-5.24754e-07
7.50935e-07
-1.70925e-07
-5.33724e-07
8.84082e-08
-7.22178e-07
1.63246e-07
-2.42476e-07
1.71364e-07
-1.04011e-06
1.17743e-08
-9.67453e-07
-3.35275e-06
9.59656e-08
2.64326e-06
1.14891e-07
1.49446e-06
1.76453e-07
3.87151e-07
2.4262e-07
8.86599e-08
2.13643e-07
1.8253e-07
2.66893e-07
4.95761e-08
2.88251e-07
1.50472e-07
6.29831e-08
4.95091e-07
-1.94258e-07
5.52603e-07
-3.17307e-07
6.52246e-07
-3.02435e-07
3.44448e-07
-3.6713e-07
-1.36495e-07
-2.40477e-07
-5.55761e-07
-4.02197e-08
5.50678e-07
3.35599e-08
-6.07503e-07
1.19435e-08
-7.00562e-07
-9.75e-08
-1.33033e-07
-1.1316e-07
-1.02445e-06
2.7003e-08
-1.10762e-06
-3.32574e-06
7.19019e-08
2.57135e-06
1.10412e-07
1.45595e-06
1.2384e-07
3.73723e-07
4.36831e-08
1.68817e-07
-7.85296e-08
3.04743e-07
-2.83057e-08
-6.47877e-10
9.50294e-08
2.71369e-08
1.64316e-07
4.25804e-07
1.25534e-07
5.91385e-07
4.43325e-08
7.33447e-07
9.51896e-10
3.87828e-07
-1.71869e-07
3.63256e-08
-3.27684e-07
-3.99946e-07
1.13851e-09
2.21855e-07
-1.73809e-08
-5.88984e-07
-2.66302e-07
-4.51641e-07
-2.96032e-08
-3.69732e-07
-6.60886e-08
-9.87968e-07
-7.34996e-08
-1.1002e-06
-3.39924e-06
8.70832e-08
2.48427e-06
1.30753e-07
1.41228e-06
1.89783e-08
4.85498e-07
-1.23845e-07
3.1164e-07
-1.21365e-07
3.02263e-07
-1.76834e-07
5.48216e-08
-2.34841e-07
8.51432e-08
-7.13207e-08
2.62284e-07
1.0402e-07
4.16045e-07
1.46165e-07
6.91302e-07
6.85371e-08
4.65457e-07
3.22922e-08
7.25706e-08
-1.89262e-07
-1.78391e-07
9.13458e-08
-5.87532e-08
2.75467e-07
-7.73105e-07
5.68355e-08
-2.33009e-07
2.88942e-07
-6.01838e-07
1.903e-07
-8.89327e-07
3.2934e-08
-9.42838e-07
-3.36631e-06
1.18496e-07
2.36578e-06
1.97134e-07
1.33364e-06
1.75638e-07
5.06994e-07
1.20339e-07
3.66939e-07
4.09287e-08
3.81674e-07
2.13017e-08
7.44485e-08
-7.56726e-09
1.14012e-07
-1.36183e-09
2.56078e-07
1.02232e-07
3.12451e-07
3.01703e-07
4.91832e-07
2.58005e-07
5.09154e-07
2.24888e-07
1.05687e-07
1.51875e-07
-1.05378e-07
3.34106e-07
-2.40985e-07
3.39691e-07
-7.7869e-07
4.31268e-07
-3.24587e-07
5.26315e-07
-6.96885e-07
2.81534e-07
-6.44546e-07
1.30675e-07
-7.91979e-07
-3.23563e-06
8.26484e-08
2.28313e-06
1.68584e-07
1.2477e-06
1.27055e-07
5.48524e-07
3.73839e-07
1.20154e-07
3.83968e-07
3.71545e-07
4.62521e-07
-4.10507e-09
5.47421e-07
2.91125e-08
4.26152e-07
3.77347e-07
7.95298e-07
-5.66955e-08
8.30357e-07
4.56773e-07
9.52801e-07
3.86711e-07
9.34518e-07
1.23971e-07
9.39681e-07
-1.10542e-07
1.1691e-06
-4.70401e-07
9.90893e-07
-6.00485e-07
8.93566e-07
-2.27259e-07
3.13927e-07
-1.17246e-07
-1.90092e-07
-1.40527e-07
-9.04816e-08
-8.9159e-07
-3.32612e-06
1.77196e-07
2.10593e-06
3.03536e-07
1.12136e-06
2.79086e-07
5.72973e-07
1.33544e-07
2.65697e-07
3.64233e-07
1.40856e-07
4.56646e-07
-9.65179e-08
3.70438e-07
1.15321e-07
6.4523e-07
1.02555e-07
9.40486e-07
-3.51952e-07
1.1544e-06
2.42861e-07
1.19082e-06
3.50286e-07
1.30647e-06
8.32093e-09
1.12148e-06
7.44548e-08
7.90871e-07
-1.39796e-07
5.35612e-07
-3.45226e-07
-1.26866e-07
4.35218e-07
-2.59992e-07
1.588e-08
1.34463e-07
-5.34981e-07
6.917e-08
-8.26297e-07
-3.25695e-06
1.55854e-07
1.95008e-06
1.8411e-07
1.09311e-06
2.98686e-07
4.58397e-07
2.60103e-07
3.0428e-07
3.04081e-07
9.68783e-08
3.28531e-07
-1.20968e-07
5.68474e-07
-1.24622e-07
1.05569e-06
-3.84659e-07
1.03068e-06
-3.26948e-07
1.21356e-06
5.9989e-08
1.12244e-06
4.41407e-07
1.02001e-06
1.10742e-07
8.49354e-07
2.45115e-07
2.6139e-07
4.48168e-07
2.40837e-08
-1.0792e-07
-2.53152e-08
4.84617e-07
6.34592e-07
-6.44028e-07
4.01608e-07
-3.01998e-07
9.41504e-08
-5.18839e-07
-3.1628e-06
3.73585e-07
1.57649e-06
5.86874e-07
8.79818e-07
5.42969e-07
5.02302e-07
6.35767e-07
2.11483e-07
7.10746e-07
2.18986e-08
8.04544e-07
-2.14766e-07
9.53257e-07
-2.73335e-07
9.6515e-07
-3.96552e-07
7.98992e-07
-1.6079e-07
8.65159e-07
-6.17806e-09
1.07591e-06
2.3066e-07
1.10331e-06
8.33337e-08
1.25396e-06
9.4471e-08
1.2194e-06
4.82726e-07
1.13778e-06
-2.63024e-08
1.05459e-06
5.67811e-07
7.96188e-07
-3.85627e-07
1.09212e-07
3.84979e-07
3.22274e-07
-7.31901e-07
-2.84052e-06
4.89392e-07
1.0871e-06
7.47012e-07
6.22198e-07
8.81231e-07
3.68083e-07
8.62075e-07
2.30638e-07
6.81772e-07
2.02202e-07
3.57976e-07
1.0903e-07
-9.69565e-08
1.81597e-07
-6.39999e-07
1.4649e-07
-9.07732e-07
1.06943e-07
-9.60824e-07
4.69142e-08
-7.80457e-07
5.02927e-08
-6.82449e-07
-1.4674e-08
-6.10579e-07
2.26005e-08
-2.60713e-07
1.3286e-07
-2.12678e-07
-7.43373e-08
1.66908e-07
1.88225e-07
-1.27083e-07
-9.16359e-08
2.90583e-07
-3.26867e-08
7.97783e-07
-1.2391e-06
-2.04274e-06
1.0871e-06
1.7093e-06
2.07738e-06
2.30802e-06
2.51022e-06
2.61925e-06
2.80085e-06
2.94734e-06
3.05428e-06
3.1012e-06
3.15149e-06
3.13681e-06
3.15941e-06
3.29228e-06
3.21794e-06
3.40616e-06
3.31453e-06
3.28184e-06
2.04274e-06
)
;

boundaryField
{
    movingWall
    {
        type            calculated;
        value           uniform 0;
    }
    fixedWalls
    {
        type            calculated;
        value           uniform 0;
    }
    frontAndBack
    {
        type            empty;
        value           nonuniform 0();
    }
}


// ************************************************************************* //
