/*--------------------------------*- C++ -*----------------------------------*\
| =========                 |                                                 |
| \\      /  F ield         | OpenFOAM: The Open Source CFD Toolbox           |
|  \\    /   O peration     | Version:  5.x                                   |
|   \\  /    A nd           | Web:      www.OpenFOAM.org                      |
|    \\/     M anipulation  |                                                 |
\*---------------------------------------------------------------------------*/
FoamFile
{
    version     2.0;
    format      ascii;
    class       volScalarField;
    location    "5.6";
    object      p;
}
// * * * * * * * * * * * * * * * * * * * * * * * * * * * * * * * * * * * * * //

dimensions      [0 2 -2 0 0 0 0];

internalField   nonuniform List<scalar> 
400
(
-1.88177e-11
3.05272e-06
9.62001e-06
2.03803e-05
3.67345e-05
6.09481e-05
9.65647e-05
0.000148215
0.000214972
0.000262477
0.000156432
-0.000177912
-0.000544288
-0.00075126
-0.000841778
-0.000744416
-0.00038832
0.000109353
0.000649174
0.00133173
-3.86849e-06
-1.25779e-06
4.25451e-06
1.29515e-05
2.53081e-05
4.16664e-05
6.15841e-05
8.19251e-05
9.17629e-05
5.45734e-05
-0.000130688
-0.000435789
-0.000614008
-0.000761107
-0.000963845
-0.00100541
-0.00072338
-0.000318289
7.11022e-05
0.000594553
-1.1355e-05
-9.485e-06
-5.63594e-06
1.50835e-07
7.71517e-06
1.63846e-05
2.43258e-05
2.70955e-05
1.47676e-05
-3.11591e-05
-0.00014327
-0.000324194
-0.000545843
-0.00078438
-0.000992207
-0.000965715
-0.000783303
-0.000525441
-0.000256374
7.27137e-05
-2.14275e-05
-2.03902e-05
-1.83441e-05
-1.55715e-05
-1.26168e-05
-1.06229e-05
-1.17747e-05
-2.00704e-05
-4.25102e-05
-8.88217e-05
-0.000174097
-0.000302874
-0.000462668
-0.000614125
-0.000716992
-0.000731325
-0.000649287
-0.000492509
-0.000376849
-0.000190262
-3.30587e-05
-3.28183e-05
-3.24212e-05
-3.22696e-05
-3.30156e-05
-3.58607e-05
-4.27737e-05
-5.67318e-05
-8.28078e-05
-0.000124619
-0.000191234
-0.000280137
-0.000384629
-0.000476065
-0.000546425
-0.000561961
-0.000527255
-0.000429819
-0.000394683
-0.000250642
-4.52542e-05
-4.56924e-05
-4.6644e-05
-4.85179e-05
-5.19158e-05
-5.78562e-05
-6.79591e-05
-8.37723e-05
-0.000109789
-0.00014469
-0.000195546
-0.000256234
-0.000325035
-0.000380831
-0.000426984
-0.000426487
-0.000414972
-0.000356058
-0.000336211
-0.000308875
-5.71988e-05
-5.82022e-05
-6.01925e-05
-6.355e-05
-6.8685e-05
-7.6327e-05
-8.79718e-05
-0.000103045
-0.000127126
-0.000156175
-0.000194964
-0.000236924
-0.000284424
-0.000318493
-0.000352163
-0.00034773
-0.000348735
-0.000300097
-0.000319861
-0.000263878
-6.82474e-05
-6.97387e-05
-7.25108e-05
-7.68612e-05
-8.30816e-05
-9.12875e-05
-0.00010365
-0.000117361
-0.000138148
-0.000161578
-0.000191798
-0.000220767
-0.000255745
-0.00027372
-0.000301694
-0.000282233
-0.000294772
-0.000226311
-0.000209389
-0.000160098
-7.79094e-05
-7.99209e-05
-8.34587e-05
-8.86289e-05
-9.54272e-05
-0.000104028
-0.000115442
-0.000128372
-0.000145967
-0.000164446
-0.000188425
-0.000208082
-0.00023543
-0.00024414
-0.000268458
-0.000248397
-0.000263465
-0.000208504
-0.00025239
-0.000214916
-8.58434e-05
-8.86999e-05
-9.28574e-05
-9.84046e-05
-0.000105401
-0.000113458
-0.000124093
-0.000135425
-0.000150466
-0.000164603
-0.000184356
-0.000196404
-0.000220093
-0.000218517
-0.00024645
-0.000215202
-0.000258841
-0.000185628
-0.000285501
-0.000189929
-9.11574e-05
-9.49626e-05
-0.00010093
-0.000107656
-0.000115085
-0.000123396
-0.000132885
-0.000142878
-0.000155359
-0.000166205
-0.000182551
-0.000190259
-0.000210665
-0.000207386
-0.000232165
-0.000203369
-0.000238356
-0.000160857
-0.000205369
-0.000140732
-9.50093e-05
-0.000103051
-0.000108668
-0.000115444
-0.000122027
-0.000128568
-0.000137276
-0.000145073
-0.000156131
-0.000163566
-0.000178052
-0.000180157
-0.000199671
-0.000187221
-0.00021677
-0.00017614
-0.000228391
-0.000147924
-0.000228562
-0.000152842
-9.21271e-05
-0.0001014
-0.000113876
-0.000123925
-0.00013142
-0.000139573
-0.00014672
-0.000153689
-0.000162103
-0.000167905
-0.00017961
-0.000181082
-0.000197605
-0.000189865
-0.000214273
-0.000190445
-0.000224776
-0.000169602
-0.000247306
-0.000159594
-9.0907e-05
-0.000121906
-0.000125295
-0.000135208
-0.000137793
-0.000141151
-0.00014721
-0.00015117
-0.000159218
-0.000162312
-0.000173207
-0.000170779
-0.000185429
-0.000172944
-0.000192785
-0.0001655
-0.000208565
-0.000161198
-0.000227044
-0.000177674
-8.61444e-05
-0.000122621
-0.000131618
-0.000142053
-0.000151315
-0.000159546
-0.00015982
-0.000164141
-0.000167985
-0.000171427
-0.000178295
-0.000179805
-0.000188071
-0.000185421
-0.000204277
-0.000191711
-0.000226131
-0.000182385
-0.000255786
-0.000186141
-0.000194533
-0.000227408
-0.000149498
-0.000186287
-0.000160079
-0.00014958
-0.000151518
-0.000153626
-0.000160449
-0.000161963
-0.00017038
-0.000166873
-0.000178535
-0.000170464
-0.000175791
-0.000156821
-0.000160774
-0.00017372
-0.000186388
-0.000154609
-7.16651e-05
-0.000219674
-0.000222773
-0.000181454
-0.000160429
-0.000166579
-0.000157681
-0.000170839
-0.000169126
-0.000176039
-0.0001778
-0.00018394
-0.00017744
-0.000198272
-0.000177278
-0.000195614
-0.000277524
-0.000176774
-0.000269145
-7.80799e-05
-9.79792e-05
-0.000281548
-0.000178075
-0.000139143
-0.000160957
-0.000148863
-0.000160821
-0.00016304
-0.00017032
-0.000171791
-0.000174299
-0.000169655
-0.000173454
-0.000164611
-0.000184305
-0.000237887
-0.000145043
-7.60563e-05
-3.68761e-05
0.000103235
-3.98633e-05
-0.000149032
-0.000168266
-0.000174643
-0.000155197
-0.000148722
-0.000162795
-0.000167057
-0.000173744
-0.000173649
-0.000178461
-0.00018358
-0.000209096
-0.000166833
-0.000184151
-0.000239193
-0.000139972
-0.000211166
-0.000132956
0.000367654
-0.000194873
-0.000152861
-0.000119674
-0.000181567
-0.000127852
-0.00014209
-0.000142453
-0.00014897
-0.000149596
-0.000143837
-0.000151426
-0.000154675
-0.000160312
-0.00015253
-0.000147395
-0.000124634
-0.000132367
6.39539e-05
0.000486471
0.00168976
)
;

boundaryField
{
    movingWall
    {
        type            zeroGradient;
    }
    fixedWalls
    {
        type            zeroGradient;
    }
    frontAndBack
    {
        type            empty;
    }
}


// ************************************************************************* //
