/*--------------------------------*- C++ -*----------------------------------*\
| =========                 |                                                 |
| \\      /  F ield         | OpenFOAM: The Open Source CFD Toolbox           |
|  \\    /   O peration     | Version:  5.x                                   |
|   \\  /    A nd           | Web:      www.OpenFOAM.org                      |
|    \\/     M anipulation  |                                                 |
\*---------------------------------------------------------------------------*/
FoamFile
{
    version     2.0;
    format      ascii;
    class       surfaceScalarField;
    location    "5.6";
    object      phi;
}
// * * * * * * * * * * * * * * * * * * * * * * * * * * * * * * * * * * * * * //

dimensions      [0 3 -1 0 0 0 0];

internalField   nonuniform List<scalar> 
760
(
-3.01946e-08
3.01946e-08
-6.36288e-08
3.34342e-08
-1.0124e-07
3.76111e-08
-1.46284e-07
4.50442e-08
-2.03919e-07
5.76349e-08
-2.832e-07
7.92806e-08
-4.01341e-07
1.18141e-07
-5.92976e-07
1.91635e-07
-9.25826e-07
3.3285e-07
-1.48802e-06
5.6219e-07
-2.21571e-06
7.27697e-07
-2.74309e-06
5.27376e-07
-2.94281e-06
1.99716e-07
-3.06346e-06
1.20655e-07
-3.13775e-06
7.42939e-08
-2.97965e-06
-1.58107e-07
-2.5896e-06
-3.90052e-07
-2.0395e-06
-5.50099e-07
-1.27123e-06
-7.68266e-07
-1.27123e-06
-3.04606e-08
6.06552e-08
-6.38897e-08
6.68633e-08
-1.0057e-07
7.42911e-08
-1.42508e-07
8.69825e-08
-1.9204e-07
1.07167e-07
-2.51691e-07
1.38932e-07
-3.23029e-07
1.89479e-07
-4.02199e-07
2.70806e-07
-4.69049e-07
3.997e-07
-4.94026e-07
5.87167e-07
-5.49744e-07
7.83414e-07
-8.73594e-07
8.51226e-07
-1.43562e-06
7.61741e-07
-1.84007e-06
5.2511e-07
-1.94953e-06
1.8375e-07
-1.88979e-06
-2.17843e-07
-1.70937e-06
-5.70473e-07
-1.41092e-06
-8.48548e-07
-8.86815e-07
-1.29237e-06
-2.15805e-06
-2.70833e-08
8.77385e-08
-5.65832e-08
9.63632e-08
-8.80649e-08
1.05773e-07
-1.22466e-07
1.21383e-07
-1.60348e-07
1.45049e-07
-2.01259e-07
1.79843e-07
-2.42057e-07
2.30276e-07
-2.73556e-07
3.02305e-07
-2.75997e-07
4.02141e-07
-2.19758e-07
5.30928e-07
-1.1001e-07
6.73667e-07
-2.51099e-08
7.66325e-07
-1.39997e-08
7.50631e-07
-6.75265e-08
5.78637e-07
-1.82033e-07
2.98256e-07
-3.08339e-07
-9.15379e-08
-3.99759e-07
-4.79052e-07
-4.6793e-07
-7.80376e-07
-3.42516e-07
-1.41779e-06
-2.50056e-06
-2.25146e-08
1.10253e-07
-4.69173e-08
1.20766e-07
-7.21435e-08
1.30999e-07
-9.82533e-08
1.47493e-07
-1.24588e-07
1.71384e-07
-1.49278e-07
2.04533e-07
-1.68256e-07
2.49254e-07
-1.73715e-07
3.07764e-07
-1.52794e-07
3.8122e-07
-8.66518e-08
4.64785e-07
3.56884e-08
5.51327e-07
1.9716e-07
6.04854e-07
3.47325e-07
6.00466e-07
4.33299e-07
4.92663e-07
4.25882e-07
3.05673e-07
3.33942e-07
4.02886e-10
1.43695e-07
-2.88806e-07
-1.31182e-08
-6.23563e-07
-1.39927e-07
-1.29098e-06
-2.64049e-06
-1.74407e-08
1.27694e-07
-3.63769e-08
1.39702e-07
-5.53401e-08
1.49962e-07
-7.38248e-08
1.65978e-07
-9.06101e-08
1.88169e-07
-1.03457e-07
2.1738e-07
-1.08626e-07
2.54423e-07
-1.00007e-07
2.99146e-07
-7.0342e-08
3.51555e-07
-7.92221e-09
4.02366e-07
8.94411e-08
4.53963e-07
2.21767e-07
4.72528e-07
3.55358e-07
4.66875e-07
4.68901e-07
3.79119e-07
5.01517e-07
2.73058e-07
4.63112e-07
3.88079e-08
3.42156e-07
-1.6785e-07
1.90114e-07
-4.71522e-07
3.20998e-08
-1.13296e-06
-2.60839e-06
-1.22775e-08
1.39971e-07
-2.58811e-08
1.53306e-07
-3.9142e-08
1.63223e-07
-5.1274e-08
1.7811e-07
-6.09184e-08
1.97813e-07
-6.58916e-08
2.22353e-07
-6.34525e-08
2.51984e-07
-4.8415e-08
2.84108e-07
-1.89505e-08
3.2209e-07
3.33422e-08
3.50073e-07
1.04541e-07
3.82765e-07
1.99232e-07
3.77836e-07
2.89682e-07
3.76425e-07
3.77641e-07
2.9116e-07
4.07475e-07
2.43223e-07
3.97044e-07
4.92394e-08
2.99709e-07
-7.05155e-08
1.59307e-07
-3.31119e-07
-2.1248e-08
-9.52409e-07
-2.62964e-06
-7.10287e-09
1.47074e-07
-1.57558e-08
1.61959e-07
-2.40605e-08
1.71528e-07
-3.13474e-08
1.85397e-07
-3.60743e-08
2.0254e-07
-3.61799e-08
2.22459e-07
-3.03058e-08
2.46109e-07
-1.317e-08
2.66972e-07
1.33492e-08
2.95571e-07
5.55726e-08
3.0785e-07
1.07582e-07
3.30756e-07
1.75201e-07
3.10217e-07
2.34194e-07
3.17433e-07
2.98012e-07
2.27342e-07
3.14442e-07
2.26793e-07
3.18665e-07
4.50168e-08
2.51436e-07
-3.28665e-09
2.03912e-07
-2.83595e-07
1.4589e-07
-8.94387e-07
-2.48375e-06
-2.11337e-09
1.49188e-07
-6.31784e-09
1.66163e-07
-1.06011e-08
1.75811e-07
-1.42389e-08
1.89035e-07
-1.59012e-08
2.04203e-07
-1.30073e-08
2.19565e-07
-6.1071e-09
2.39209e-07
8.36056e-09
2.52505e-07
3.06619e-08
2.7327e-07
6.33504e-08
2.75161e-07
1.00573e-07
2.93533e-07
1.47273e-07
2.63516e-07
1.84922e-07
2.79784e-07
2.24779e-07
1.87485e-07
2.35412e-07
2.1616e-07
2.38958e-07
4.14709e-08
1.951e-07
4.05719e-08
1.29616e-07
-2.18111e-07
2.99008e-09
-7.67761e-07
-2.48076e-06
3.94101e-09
1.45247e-07
4.30347e-09
1.65801e-07
3.39998e-09
1.76715e-07
1.43089e-09
1.91004e-07
1.28409e-09
2.0435e-07
2.95453e-09
2.17895e-07
1.02552e-08
2.31909e-07
2.25833e-08
2.40177e-07
4.10468e-08
2.54806e-07
6.66739e-08
2.49534e-07
9.49523e-08
2.65255e-07
1.29592e-07
2.28877e-07
1.55779e-07
2.53597e-07
1.83857e-07
1.59407e-07
1.83953e-07
2.16063e-07
1.74301e-07
5.11229e-08
1.08788e-07
1.06085e-07
5.32808e-08
-1.62604e-07
-8.12832e-08
-6.33197e-07
-2.56204e-06
1.00509e-08
1.35196e-07
1.24253e-08
1.63426e-07
1.25914e-08
1.76549e-07
1.24497e-08
1.91145e-07
1.32768e-08
2.03522e-07
1.66276e-08
2.14544e-07
2.28131e-08
2.25723e-07
3.22239e-08
2.30766e-07
4.58884e-08
2.41142e-07
6.28395e-08
2.32583e-07
8.21959e-08
2.45898e-07
1.01639e-07
2.09433e-07
1.18426e-07
2.3681e-07
1.28766e-07
1.49067e-07
1.31196e-07
2.13634e-07
1.30995e-07
5.13237e-08
1.10465e-07
1.26615e-07
9.64644e-08
-1.48603e-07
7.98456e-08
-6.16578e-07
-2.4822e-06
2.32981e-08
1.11898e-07
3.49394e-08
1.51785e-07
3.73532e-08
1.74135e-07
3.20034e-08
1.96495e-07
2.79662e-08
2.0756e-07
2.4055e-08
2.18455e-07
2.63622e-08
2.23416e-07
3.20537e-08
2.25074e-07
4.41645e-08
2.29031e-07
5.83852e-08
2.18362e-07
7.70149e-08
2.27269e-07
9.53584e-08
1.9109e-07
1.13869e-07
2.183e-07
1.26242e-07
1.36693e-07
1.31697e-07
2.0818e-07
1.10789e-07
7.22317e-08
8.33783e-08
1.54025e-07
2.20195e-08
-8.72439e-08
-1.78345e-08
-5.76724e-07
-2.50003e-06
3.70304e-08
7.48672e-08
3.11054e-08
1.5771e-07
2.75433e-08
1.77697e-07
2.80498e-08
1.95989e-07
2.94276e-08
2.06182e-07
3.38891e-08
2.13993e-07
3.7587e-08
2.19718e-07
4.10296e-08
2.21632e-07
4.82002e-08
2.21861e-07
5.31168e-08
2.13446e-07
6.35185e-08
2.16867e-07
6.41975e-08
1.90411e-07
7.49375e-08
2.0756e-07
5.91736e-08
1.52457e-07
6.94067e-08
1.97946e-07
3.74436e-08
1.04195e-07
4.22379e-08
1.49231e-07
3.3188e-09
-4.83248e-08
-1.31871e-08
-5.60218e-07
-2.51322e-06
7.89694e-08
-4.10224e-09
1.15744e-07
1.20935e-07
1.10749e-07
1.82692e-07
7.52907e-08
2.31447e-07
5.12964e-08
2.30176e-07
2.81586e-08
2.37131e-07
2.19311e-08
2.25945e-07
2.10704e-08
2.22492e-07
3.0848e-08
2.12083e-07
3.77478e-08
2.06546e-07
5.61431e-08
1.98471e-07
6.39131e-08
1.82641e-07
8.99874e-08
1.81486e-07
9.31721e-08
1.49272e-07
1.16579e-07
1.7454e-07
9.53723e-08
1.25401e-07
8.07733e-08
1.6383e-07
-2.47386e-08
5.7187e-08
-4.03019e-08
-5.44655e-07
-2.55352e-06
1.47513e-07
-1.51615e-07
5.57769e-08
2.12671e-07
3.58985e-08
2.0257e-07
5.06989e-08
2.16647e-07
5.43581e-08
2.26517e-07
5.85026e-08
2.32987e-07
5.59102e-08
2.28538e-07
5.09752e-08
2.27427e-07
5.22963e-08
2.10762e-07
4.81718e-08
2.1067e-07
5.29107e-08
1.93733e-07
4.20499e-08
1.93502e-07
4.54991e-08
1.78037e-07
1.26334e-08
1.82138e-07
1.33225e-08
1.73851e-07
-6.1097e-08
1.99821e-07
2.17822e-08
8.0951e-08
1.62363e-08
6.27328e-08
1.56533e-08
-5.44072e-07
-2.53787e-06
2.85035e-07
-4.36651e-07
2.48462e-07
2.49244e-07
1.48871e-07
3.02161e-07
6.8226e-09
3.58695e-07
-4.73352e-08
2.80675e-07
-6.45544e-08
2.50206e-07
-5.36928e-08
2.17676e-07
-4.02039e-08
2.13939e-07
-2.17397e-08
1.92298e-07
-1.22615e-08
2.01192e-07
1.0386e-08
1.71085e-07
1.04006e-08
1.93487e-07
5.10514e-08
1.37386e-07
2.85961e-08
2.04593e-07
1.21146e-07
8.13009e-08
1.21149e-07
1.99818e-07
1.05124e-07
9.69757e-08
-4.18182e-09
1.72039e-07
-1.46549e-08
-5.33599e-07
-2.55252e-06
2.1846e-07
-6.55111e-07
2.44287e-07
2.23418e-07
3.45057e-07
2.01391e-07
3.49783e-07
3.53969e-07
3.07105e-07
3.23353e-07
2.39314e-07
3.17997e-07
2.0088e-07
2.5611e-07
1.64321e-07
2.50498e-07
1.45417e-07
2.11201e-07
1.25511e-07
2.21099e-07
1.24006e-07
1.7259e-07
1.06839e-07
2.10654e-07
1.2158e-07
1.22645e-07
9.13862e-08
2.34787e-07
1.70954e-08
1.55592e-07
-6.22828e-08
2.79196e-07
6.54289e-08
-3.07359e-08
3.34677e-08
2.04e-07
4.10961e-08
-5.41227e-07
-2.51142e-06
-1.99939e-07
-4.55172e-07
-5.34255e-07
5.57734e-07
-4.87973e-07
1.55109e-07
-3.94324e-07
2.6032e-07
-3.93193e-07
3.22222e-07
-3.29839e-07
2.54643e-07
-3.2031e-07
2.46581e-07
-2.86502e-07
2.1669e-07
-2.64983e-07
1.89682e-07
-2.38544e-07
1.9466e-07
-2.13768e-07
1.47813e-07
-1.91901e-07
1.88787e-07
-1.79763e-07
1.10507e-07
-1.97978e-07
2.53002e-07
-8.46533e-08
4.22674e-08
-1.82882e-07
3.77425e-07
1.00827e-07
-3.14445e-07
1.91956e-07
1.12871e-07
4.77359e-08
-3.97007e-07
-2.46369e-06
-7.23229e-09
-4.47939e-07
4.01913e-07
1.48588e-07
2.755e-07
2.81522e-07
3.60425e-07
1.75396e-07
4.27087e-07
2.5556e-07
5.01143e-07
1.80587e-07
5.58474e-07
1.8925e-07
5.94379e-07
1.80785e-07
6.4086e-07
1.43202e-07
6.34181e-07
2.01338e-07
6.45853e-07
1.36141e-07
6.0294e-07
2.31701e-07
5.89384e-07
1.24063e-07
5.26334e-07
3.16051e-07
6.29638e-07
-6.10372e-08
5.42963e-07
4.641e-07
3.1911e-07
-9.05915e-08
1.88872e-07
2.43108e-07
2.5525e-07
-4.63384e-07
-2.20844e-06
-8.01171e-07
3.53231e-07
-9.2689e-07
2.74308e-07
-9.09978e-07
2.64611e-07
-8.93085e-07
1.58502e-07
-8.19235e-07
1.81711e-07
-7.81938e-07
1.43289e-07
-7.46228e-07
1.5354e-07
-6.98724e-07
1.3328e-07
-6.58793e-07
1.03271e-07
-5.87574e-07
1.30119e-07
-5.45529e-07
9.40969e-08
-4.44726e-07
1.30897e-07
-3.99453e-07
7.87901e-08
-1.98087e-07
1.14685e-07
-3.04321e-07
4.51967e-08
5.51815e-10
1.59227e-07
-5.39629e-08
-3.60768e-08
2.07435e-07
-1.82895e-08
6.6615e-07
-9.221e-07
-1.54229e-06
3.53231e-07
6.27539e-07
8.92149e-07
1.05065e-06
1.23236e-06
1.37565e-06
1.52919e-06
1.66247e-06
1.76574e-06
1.89586e-06
1.98996e-06
2.12086e-06
2.19965e-06
2.31433e-06
2.35953e-06
2.51876e-06
2.48268e-06
2.46439e-06
1.54229e-06
)
;

boundaryField
{
    movingWall
    {
        type            calculated;
        value           uniform 0;
    }
    fixedWalls
    {
        type            calculated;
        value           uniform 0;
    }
    frontAndBack
    {
        type            empty;
        value           nonuniform 0();
    }
}


// ************************************************************************* //
