/*--------------------------------*- C++ -*----------------------------------*\
| =========                 |                                                 |
| \\      /  F ield         | OpenFOAM: The Open Source CFD Toolbox           |
|  \\    /   O peration     | Version:  5.x                                   |
|   \\  /    A nd           | Web:      www.OpenFOAM.org                      |
|    \\/     M anipulation  |                                                 |
\*---------------------------------------------------------------------------*/
FoamFile
{
    version     2.0;
    format      ascii;
    class       volScalarField;
    location    "11";
    object      p;
}
// * * * * * * * * * * * * * * * * * * * * * * * * * * * * * * * * * * * * * //

dimensions      [0 2 -2 0 0 0 0];

internalField   nonuniform List<scalar> 
400
(
-6.16268e-10
-0.00050454
-0.00084057
-0.00104758
-0.00115285
-0.00118263
-0.00119678
-0.00121912
-0.00121557
-0.00121134
-0.00121216
-0.0012094
-0.00120347
-0.00117526
-0.00116584
-0.00112369
-0.000998032
-0.00076289
-0.000586805
0.000351537
-0.000601437
-0.000884592
-0.00106436
-0.00113791
-0.00119591
-0.00120391
-0.00120497
-0.00122204
-0.00122212
-0.00121142
-0.0012115
-0.00121336
-0.00121841
-0.00117701
-0.00117796
-0.00116404
-0.00115399
-0.00109102
-0.00103618
-0.00038536
-0.000839814
-0.00108977
-0.00115551
-0.00118126
-0.00120419
-0.0012088
-0.00121123
-0.00121488
-0.00122046
-0.00120748
-0.00122248
-0.00120421
-0.00121606
-0.00118868
-0.00119086
-0.0011746
-0.00118802
-0.00115196
-0.00108151
-0.000811571
-0.00102742
-0.0011536
-0.00116423
-0.00117802
-0.00119377
-0.00120494
-0.00121186
-0.0012149
-0.00122022
-0.00121212
-0.00121316
-0.00120255
-0.00120518
-0.00118268
-0.00119255
-0.00117086
-0.00117984
-0.001177
-0.00122463
-0.00106831
-0.00109434
-0.00113725
-0.00114582
-0.00117373
-0.00119161
-0.00120592
-0.0012154
-0.0012157
-0.00122292
-0.0012105
-0.00122061
-0.00120112
-0.00121393
-0.00119178
-0.00120609
-0.00119593
-0.00120729
-0.00119794
-0.00118565
-0.00112871
-0.0011414
-0.00116842
-0.00115449
-0.00118422
-0.00120403
-0.0012183
-0.00122757
-0.00122537
-0.00122904
-0.00121653
-0.00121698
-0.00120228
-0.00120297
-0.00118678
-0.00119107
-0.00117564
-0.00119487
-0.00116413
-0.0011997
-0.00116712
-0.0011309
-0.00113175
-0.00114251
-0.00119137
-0.00122264
-0.00124079
-0.00124525
-0.00123987
-0.00124
-0.00122361
-0.00122626
-0.0012072
-0.00121562
-0.00119597
-0.00121056
-0.00119421
-0.0012111
-0.00119664
-0.00121503
-0.00117285
-0.00118091
-0.00119578
-0.00122526
-0.00126752
-0.00129265
-0.00129964
-0.00128607
-0.00126685
-0.00125471
-0.001232
-0.00122478
-0.00120542
-0.00120385
-0.00118756
-0.00119257
-0.00117338
-0.00119116
-0.00116165
-0.00117748
-0.00117808
-0.00125704
-0.00126857
-0.00129671
-0.00136354
-0.00140704
-0.00139808
-0.00135063
-0.00130802
-0.00127865
-0.00124953
-0.00123797
-0.00121479
-0.0012164
-0.00119459
-0.00120645
-0.00118325
-0.00120798
-0.0011851
-0.00122308
-0.00117588
-0.00130993
-0.00135349
-0.00146138
-0.00158614
-0.00164382
-0.0016151
-0.0014801
-0.00136566
-0.00129859
-0.00125062
-0.00123348
-0.00120276
-0.00120191
-0.00117944
-0.0011907
-0.00116572
-0.00118372
-0.00114838
-0.00116359
-0.0011603
-0.00142561
-0.00153786
-0.00168009
-0.00184011
-0.00192499
-0.00188825
-0.00168064
-0.00145898
-0.00133962
-0.00127023
-0.00124885
-0.00121272
-0.00122018
-0.00118417
-0.00119386
-0.00116098
-0.0012034
-0.00115778
-0.00121489
-0.00114605
-0.0014355
-0.00156782
-0.0017734
-0.00197259
-0.00214261
-0.00210535
-0.00179463
-0.00148314
-0.00133203
-0.00125267
-0.0012289
-0.00118682
-0.001188
-0.00117345
-0.00117905
-0.00113064
-0.00116448
-0.0011249
-0.00113794
-0.00111529
-0.00129163
-0.00147991
-0.00172176
-0.00195201
-0.00213384
-0.00207879
-0.00177473
-0.0014776
-0.00126518
-0.00120012
-0.00118128
-0.00118599
-0.00120609
-0.00119475
-0.00120607
-0.00111773
-0.00118276
-0.00114324
-0.00117926
-0.00113144
-0.00100262
-0.00122191
-0.00153075
-0.00174902
-0.00192945
-0.00188585
-0.00158295
-0.00136939
-0.00132336
-0.00131506
-0.00125518
-0.00122753
-0.00119799
-0.00116382
-0.00111868
-0.00107565
-0.00114659
-0.00108613
-0.00115581
-0.00113338
-0.000687969
-0.000973711
-0.00121278
-0.00141987
-0.0015346
-0.00149918
-0.00132672
-0.00121021
-0.00126309
-0.00122782
-0.00121845
-0.00124677
-0.00114935
-0.00125098
-0.00113621
-0.00117868
-0.00122729
-0.00115307
-0.00128714
-0.00115433
-0.000710872
-0.000953785
-0.00106853
-0.0011543
-0.00118215
-0.00118611
-0.00119643
-0.00118118
-0.00117237
-0.00113058
-0.00110476
-0.0011011
-0.00109561
-0.0011038
-0.00109466
-0.00104864
-0.00109062
-0.00112982
-0.00111246
-0.00109098
-0.000933835
-0.00104001
-0.00108532
-0.00109845
-0.00107347
-0.00107219
-0.00110456
-0.00109354
-0.00115978
-0.00112601
-0.00115696
-0.00116139
-0.00112992
-0.00120839
-0.0011286
-0.00120289
-0.00134121
-0.00109668
-0.00124699
-0.000996473
-0.00096398
-0.00113831
-0.00104688
-0.00106315
-0.00106945
-0.00108651
-0.00111914
-0.00113117
-0.00113417
-0.00112498
-0.00113131
-0.00109788
-0.00110996
-0.00111754
-0.00110376
-0.001257
-0.00118519
-0.000941157
-0.000991546
-0.000752055
-0.000927631
-0.00106145
-0.00106804
-0.00106084
-0.00102465
-0.00101551
-0.0010593
-0.00107685
-0.00111338
-0.00112589
-0.00113982
-0.00111771
-0.0011821
-0.00108855
-0.00119609
-0.00118496
-0.00106278
-0.00129155
-0.000968537
-0.000555362
-0.00108524
-0.00103388
-0.000976246
-0.00105478
-0.00103757
-0.00106117
-0.0010847
-0.00110004
-0.00110394
-0.00110673
-0.00110241
-0.0010972
-0.00108467
-0.0010743
-0.00111614
-0.00115958
-0.0010869
-0.000827836
-0.000392692
0.000940746
)
;

boundaryField
{
    movingWall
    {
        type            zeroGradient;
    }
    fixedWalls
    {
        type            zeroGradient;
    }
    frontAndBack
    {
        type            empty;
    }
}


// ************************************************************************* //
