/*--------------------------------*- C++ -*----------------------------------*\
| =========                 |                                                 |
| \\      /  F ield         | OpenFOAM: The Open Source CFD Toolbox           |
|  \\    /   O peration     | Version:  5.x                                   |
|   \\  /    A nd           | Web:      www.OpenFOAM.org                      |
|    \\/     M anipulation  |                                                 |
\*---------------------------------------------------------------------------*/
FoamFile
{
    version     2.0;
    format      ascii;
    class       surfaceScalarField;
    location    "11";
    object      phi;
}
// * * * * * * * * * * * * * * * * * * * * * * * * * * * * * * * * * * * * * //

dimensions      [0 3 -1 0 0 0 0];

internalField   nonuniform List<scalar> 
760
(
-1.03094e-06
1.03094e-06
-1.80294e-06
7.72001e-07
-2.08972e-06
2.86778e-07
-2.25737e-06
1.67654e-07
-2.32304e-06
6.56711e-08
-2.31824e-06
-4.80431e-09
-2.35182e-06
3.35838e-08
-2.37409e-06
2.22695e-08
-2.36623e-06
-7.86776e-09
-2.37272e-06
6.49707e-09
-2.40271e-06
2.99865e-08
-2.40783e-06
5.11623e-09
-2.4118e-06
3.9778e-09
-2.35506e-06
-5.67477e-08
-2.37091e-06
1.58553e-08
-2.27427e-06
-9.66394e-08
-2.19532e-06
-7.8952e-08
-1.89686e-06
-2.98464e-07
-1.23492e-06
-6.6194e-07
-1.23492e-06
-6.18425e-07
1.64937e-06
-8.53261e-07
1.00684e-06
-9.28789e-07
3.62306e-07
-9.78819e-07
2.17684e-07
-9.87653e-07
7.4505e-08
-1.03711e-06
4.46494e-08
-1.02859e-06
2.50655e-08
-1.02172e-06
1.54047e-08
-1.03714e-06
7.54796e-09
-1.01814e-06
-1.24985e-08
-9.94445e-07
6.28791e-09
-9.49699e-07
-3.96292e-08
-9.40012e-07
-5.71005e-09
-9.21566e-07
-7.51929e-08
-9.27223e-07
2.15123e-08
-9.83748e-07
-4.0115e-08
-1.0729e-06
1.01989e-08
-1.06047e-06
-3.10897e-07
-9.21573e-07
-8.00833e-07
-2.15649e-06
-3.08689e-07
1.95805e-06
-3.59035e-07
1.05718e-06
-3.34312e-07
3.37583e-07
-3.05557e-07
1.8893e-07
-3.14345e-07
8.32932e-08
-3.29262e-07
5.95657e-08
-3.07705e-07
3.50874e-09
-2.90726e-07
-1.57453e-09
-2.73567e-07
-9.61038e-09
-2.49831e-07
-3.62345e-08
-2.09507e-07
-3.40362e-08
-2.0546e-07
-4.36765e-08
-1.79854e-07
-3.13163e-08
-1.97761e-07
-5.72855e-08
-2.06133e-07
2.98842e-08
-2.3005e-07
-1.61973e-08
-2.17885e-07
-1.96698e-09
-1.32656e-07
-3.96125e-07
-2.31406e-07
-7.02083e-07
-2.38789e-06
-4.97098e-08
2.00776e-06
-3.92061e-08
1.04668e-06
-6.94061e-08
3.67783e-07
-1.1007e-07
2.29594e-07
-1.70532e-07
1.43755e-07
-2.08844e-07
9.78774e-08
-2.10185e-07
4.84963e-09
-2.10934e-07
-8.25501e-10
-1.91207e-07
-2.93374e-08
-1.81871e-07
-4.55709e-08
-1.76173e-07
-3.97343e-08
-1.69243e-07
-5.06065e-08
-1.91989e-07
-8.56973e-09
-1.98012e-07
-5.12628e-08
-2.22573e-07
5.44451e-08
-1.60377e-07
-7.83927e-08
-1.31385e-07
-3.09589e-08
-2.38619e-07
-2.88891e-07
-2.07255e-07
-7.33447e-07
-2.59515e-06
-2.02671e-08
2.02803e-06
-6.2834e-09
1.0327e-06
-1.04514e-07
4.66013e-07
-1.70535e-07
2.95615e-07
-2.23501e-07
1.96721e-07
-2.49889e-07
1.24265e-07
-2.57798e-07
1.27589e-08
-2.41063e-07
-1.75609e-08
-2.08953e-07
-6.14476e-08
-1.78687e-07
-7.58364e-08
-1.40178e-07
-7.82431e-08
-1.0142e-07
-8.93651e-08
-5.92466e-08
-5.07428e-08
-9.90078e-09
-1.00609e-07
4.58121e-08
-1.26776e-09
1.19064e-07
-1.51645e-07
1.11378e-07
-2.3273e-08
5.77616e-08
-2.35274e-07
1.98612e-09
-6.77672e-07
-2.59316e-06
-1.09528e-08
2.03898e-06
-3.26501e-08
1.05439e-06
-1.71486e-07
6.0485e-07
-2.48526e-07
3.72655e-07
-2.87507e-07
2.35702e-07
-2.92476e-07
1.29234e-07
-2.83562e-07
3.84565e-09
-2.49648e-07
-5.14757e-08
-2.11964e-07
-9.91306e-08
-1.76904e-07
-1.10897e-07
-1.56454e-07
-9.8693e-08
-1.292e-07
-1.16619e-07
-1.21587e-07
-5.83558e-08
-1.05527e-07
-1.16668e-07
-8.96672e-08
-1.71281e-08
-1.07703e-07
-1.33609e-07
-7.65443e-08
-5.4432e-08
-5.85769e-08
-2.53242e-07
-5.28787e-08
-6.8337e-07
-2.64604e-06
3.47091e-08
2.00427e-06
-9.28743e-08
1.18198e-06
-2.60087e-07
7.72062e-07
-3.9335e-07
5.05918e-07
-4.29305e-07
2.71657e-07
-4.06643e-07
1.06572e-07
-3.5987e-07
-4.29276e-08
-3.01047e-07
-1.10298e-07
-2.34914e-07
-1.65264e-07
-1.7967e-07
-1.66141e-07
-1.20124e-07
-1.5824e-07
-7.74512e-08
-1.59291e-07
-2.84735e-08
-1.07334e-07
1.49493e-08
-1.60091e-07
4.85243e-08
-5.0703e-08
9.05736e-08
-1.75658e-07
8.36474e-08
-4.75057e-08
2.96871e-08
-1.99282e-07
-3.80043e-09
-6.49882e-07
-2.64984e-06
-6.94894e-08
2.07376e-06
-2.92738e-07
1.40522e-06
-5.02746e-07
9.8207e-07
-5.99819e-07
6.02991e-07
-6.2574e-07
2.97578e-07
-5.55805e-07
3.66366e-08
-4.31726e-07
-1.67006e-07
-3.35499e-07
-2.06526e-07
-2.60917e-07
-2.39846e-07
-1.97543e-07
-2.29515e-07
-1.51941e-07
-2.03841e-07
-1.21368e-07
-1.89865e-07
-8.93752e-08
-1.39326e-07
-7.87473e-08
-1.70719e-07
-4.92849e-08
-8.01654e-08
-5.79514e-08
-1.66992e-07
-5.57448e-08
-4.97123e-08
-1.25268e-08
-2.425e-07
6.70337e-09
-6.69113e-07
-2.64314e-06
-4.55611e-08
2.11933e-06
-2.45779e-07
1.60544e-06
-5.53223e-07
1.28951e-06
-7.48721e-07
7.98489e-07
-8.17371e-07
3.66228e-07
-7.2333e-07
-5.74043e-08
-4.95227e-07
-3.95108e-07
-3.1904e-07
-3.82713e-07
-2.13708e-07
-3.45179e-07
-1.51335e-07
-2.91888e-07
-8.27064e-08
-2.7247e-07
-5.55855e-08
-2.16986e-07
-1.00683e-08
-1.84843e-07
-4.791e-09
-1.75996e-07
4.54608e-08
-1.30417e-07
9.1327e-08
-2.12858e-07
8.14532e-08
-3.98386e-08
3.83751e-08
-1.99422e-07
-2.73878e-08
-6.0335e-07
-2.67053e-06
-1.89844e-07
2.30917e-06
-4.16586e-07
1.83218e-06
-6.77839e-07
1.55077e-06
-8.88268e-07
1.00892e-06
-9.59614e-07
4.37574e-07
-8.5957e-07
-1.57449e-07
-5.86917e-07
-6.67761e-07
-3.25835e-07
-6.43795e-07
-1.70458e-07
-5.00557e-07
-1.31891e-07
-3.30455e-07
-9.30188e-08
-3.11342e-07
-8.79796e-08
-2.22025e-07
-4.98111e-08
-2.23012e-07
-5.83551e-08
-1.67452e-07
7.2351e-09
-1.96007e-07
3.50764e-08
-2.40699e-07
-6.44092e-10
-4.11812e-09
1.15447e-08
-2.1161e-07
3.11345e-08
-6.22939e-07
-2.63939e-06
-1.17031e-07
2.4262e-06
-2.98885e-07
2.01404e-06
-4.52521e-07
1.7044e-06
-5.44142e-07
1.10054e-06
-6.4768e-07
5.41112e-07
-6.27492e-07
-1.77637e-07
-4.78703e-07
-8.1655e-07
-2.53363e-07
-8.69135e-07
-2.31958e-08
-7.30724e-07
2.09132e-08
-3.74564e-07
4.84254e-08
-3.38854e-07
3.5539e-08
-2.09138e-07
9.92845e-09
-1.97401e-07
-3.97212e-08
-1.17802e-07
1.13742e-08
-2.47103e-07
-2.58454e-08
-2.0348e-07
4.49935e-08
-7.4957e-08
9.34115e-08
-2.60028e-07
-3.62216e-08
-4.93306e-07
-2.67561e-06
1.47251e-07
2.27895e-06
6.66576e-08
2.09463e-06
1.01474e-07
1.66959e-06
1.2606e-08
1.18941e-06
-9.27611e-08
6.46479e-07
-1.47293e-08
-2.55669e-07
6.91009e-08
-9.0038e-07
2.19803e-08
-8.22014e-07
-3.53875e-08
-6.73356e-07
-1.59697e-08
-3.93981e-07
7.52562e-09
-3.62349e-07
-3.51024e-08
-1.6651e-07
-8.01481e-08
-1.52356e-07
-1.83082e-07
-1.48691e-08
-4.16693e-08
-3.88515e-07
-7.33543e-08
-1.71795e-07
-2.67131e-08
-1.21598e-07
1.05043e-07
-3.91785e-07
4.80265e-08
-4.3629e-07
-2.62759e-06
1.76942e-07
2.10201e-06
4.45652e-07
1.82592e-06
5.8193e-07
1.53331e-06
6.29184e-07
1.14215e-06
6.86017e-07
5.89645e-07
6.6353e-07
-2.33181e-07
7.55328e-07
-9.92178e-07
8.445e-07
-9.11186e-07
6.97162e-07
-5.26018e-07
4.33812e-07
-1.30632e-07
3.26051e-07
-2.54588e-07
1.60237e-07
-6.96258e-10
1.85013e-07
-1.77132e-07
1.74132e-07
-3.98889e-09
6.64251e-08
-2.80808e-07
-1.0222e-08
-9.51475e-08
-3.64607e-08
-9.53596e-08
-6.49872e-08
-3.63258e-07
-5.71679e-08
-4.44109e-07
-2.68476e-06
6.69648e-07
1.43236e-06
1.00326e-06
1.49231e-06
1.18714e-06
1.34943e-06
1.25787e-06
1.07143e-06
1.33036e-06
5.17154e-07
1.26968e-06
-1.725e-07
9.35685e-07
-6.58186e-07
7.91383e-07
-7.66884e-07
9.06317e-07
-6.40951e-07
9.90844e-07
-2.15159e-07
9.77113e-07
-2.40857e-07
9.73085e-07
3.33184e-09
8.48543e-07
-5.25897e-08
7.43186e-07
1.01368e-07
2.68783e-07
1.93595e-07
-1.71179e-07
3.44815e-07
-1.41807e-07
-1.24732e-07
-1.38627e-07
-3.66438e-07
4.15691e-08
-6.24305e-07
-2.64319e-06
8.01344e-07
6.31015e-07
1.35097e-06
9.42687e-07
1.71231e-06
9.8808e-07
1.90426e-06
8.79483e-07
1.83364e-06
5.87771e-07
1.61373e-06
4.74082e-08
1.01503e-06
-5.94852e-08
3.76206e-07
-1.28058e-07
-3.66843e-08
-2.28061e-07
-8.26187e-08
-1.69224e-07
-2.08239e-07
-1.15237e-07
-1.62801e-07
-4.2106e-08
-1.24843e-07
-9.05477e-08
-1.33415e-07
1.0994e-07
9.92908e-08
-3.91105e-08
1.73467e-07
2.70639e-07
2.66936e-07
-2.18201e-07
-4.40337e-08
-5.5469e-08
-6.53146e-08
-6.03024e-07
-2.7085e-06
6.93175e-07
-6.21599e-08
1.2082e-06
4.27662e-07
1.5598e-06
6.36482e-07
1.83448e-06
6.04805e-07
1.87047e-06
5.5178e-07
1.78965e-06
1.28229e-07
1.60928e-06
1.20883e-07
1.47051e-06
1.07068e-08
1.19021e-06
5.22459e-08
8.77208e-07
1.43776e-07
6.82663e-07
7.9308e-08
4.47476e-07
1.93081e-07
3.69571e-07
-1.26424e-08
2.68335e-07
2.11176e-07
1.25817e-07
1.03407e-07
2.46748e-07
1.49708e-07
3.93544e-07
-3.64996e-07
1.57077e-07
1.80998e-07
1.07514e-07
-5.53461e-07
-2.60099e-06
3.24464e-07
-3.86624e-07
2.94941e-07
4.57185e-07
4.70637e-07
4.60786e-07
5.96469e-07
4.78973e-07
5.82663e-07
5.65586e-07
4.30079e-07
2.80813e-07
3.57441e-07
1.93521e-07
2.39682e-07
1.28466e-07
1.87805e-07
1.04122e-07
1.84164e-07
1.47417e-07
9.79688e-08
1.65504e-07
1.78522e-07
1.12528e-07
-2.35335e-09
1.68233e-07
4.49776e-09
2.04325e-07
6.34089e-09
1.01564e-07
-2.45157e-07
4.01206e-07
2.54855e-08
-6.35639e-07
1.63642e-07
4.28416e-08
1.65911e-08
-4.0641e-07
-2.5844e-06
-7.01283e-08
-3.16496e-07
2.60089e-07
1.26967e-07
3.82643e-07
3.38232e-07
5.43338e-07
3.18278e-07
7.63469e-07
3.45456e-07
7.97643e-07
2.46638e-07
8.23659e-07
1.67505e-07
8.07069e-07
1.45056e-07
7.82284e-07
1.28908e-07
8.02645e-07
1.27056e-07
7.72065e-07
1.96083e-07
7.56527e-07
1.28065e-07
7.88715e-07
1.36045e-07
6.68165e-07
3.24875e-07
8.2597e-07
-5.62404e-08
8.37066e-07
3.9011e-07
5.62152e-07
-3.60725e-07
3.42233e-07
2.62761e-07
2.92643e-07
-3.5682e-07
-2.29175e-06
-6.84051e-07
3.67555e-07
-8.03318e-07
2.46234e-07
-7.11033e-07
2.45948e-07
-5.83284e-07
1.90528e-07
-4.57237e-07
2.19409e-07
-3.85633e-07
1.75035e-07
-3.95018e-07
1.76889e-07
-3.76797e-07
1.26835e-07
-3.83995e-07
1.36106e-07
-3.6509e-07
1.0815e-07
-2.82952e-07
1.13945e-07
-2.62051e-07
1.07164e-07
-1.90125e-07
6.41188e-08
-4.13014e-08
1.76051e-07
-2.23297e-07
1.25755e-07
8.80036e-08
7.88096e-08
-2.30742e-07
-4.19801e-08
6.95335e-08
-3.75143e-08
7.37225e-07
-1.02451e-06
-1.55453e-06
3.67555e-07
6.1379e-07
8.59738e-07
1.05027e-06
1.26967e-06
1.44471e-06
1.6216e-06
1.74843e-06
1.88454e-06
1.99269e-06
2.10664e-06
2.2138e-06
2.27792e-06
2.45397e-06
2.57972e-06
2.65853e-06
2.61655e-06
2.57904e-06
1.55453e-06
)
;

boundaryField
{
    movingWall
    {
        type            calculated;
        value           uniform 0;
    }
    fixedWalls
    {
        type            calculated;
        value           uniform 0;
    }
    frontAndBack
    {
        type            empty;
        value           nonuniform 0();
    }
}


// ************************************************************************* //
