/*--------------------------------*- C++ -*----------------------------------*\
| =========                 |                                                 |
| \\      /  F ield         | OpenFOAM: The Open Source CFD Toolbox           |
|  \\    /   O peration     | Version:  5.x                                   |
|   \\  /    A nd           | Web:      www.OpenFOAM.org                      |
|    \\/     M anipulation  |                                                 |
\*---------------------------------------------------------------------------*/
FoamFile
{
    version     2.0;
    format      ascii;
    class       volVectorField;
    location    "11";
    object      U;
}
// * * * * * * * * * * * * * * * * * * * * * * * * * * * * * * * * * * * * * //

dimensions      [0 1 -1 0 0 0 0];

internalField   nonuniform List<vector> 
400
(
(-0.0127779 0.000388926 0)
(-0.0321768 0.0048421 0)
(-0.0392368 0.000417553 0)
(-0.0429972 3.29514e-06 0)
(-0.0462022 -0.000329371 0)
(-0.045675 -0.00212753 0)
(-0.0458301 -0.000285602 0)
(-0.048104 -0.000788732 0)
(-0.0468836 -0.001603 0)
(-0.0473042 -0.00128895 0)
(-0.0479093 -0.000329123 0)
(-0.047732 -0.000682029 0)
(-0.0492408 -0.00159307 0)
(-0.0465826 -0.00162053 0)
(-0.048775 -0.000521535 0)
(-0.0470728 -0.00284087 0)
(-0.0453833 -0.00195806 0)
(-0.0396702 -0.00307636 0)
(-0.0417506 -0.00817304 0)
(-0.00118015 -0.0158642 0)
(-0.00877476 0.0363954 0)
(-0.0181388 0.0231186 0)
(-0.0160462 0.00962381 0)
(-0.0197921 0.00603039 0)
(-0.0193832 0.00262788 0)
(-0.0200567 0.00187207 0)
(-0.020808 0.00156034 0)
(-0.0202686 0.00161035 0)
(-0.0208196 0.00124151 0)
(-0.0205638 0.00153179 0)
(-0.0202915 0.00161673 0)
(-0.0189116 0.000842345 0)
(-0.0201561 0.0016945 0)
(-0.0162759 -0.000610067 0)
(-0.02128 0.00109762 0)
(-0.0152515 -0.0013935 0)
(-0.0252616 -0.00187692 0)
(-0.016345 -0.010745 0)
(-0.0296649 -0.0216475 0)
(-0.00241973 -0.0386077 0)
(-0.00684935 0.0327573 0)
(-0.00712544 0.0180368 0)
(-0.00623285 0.00548299 0)
(-0.00663901 0.00283422 0)
(-0.00578478 0.000502142 0)
(-0.00680928 1.1596e-05 0)
(-0.00613012 -0.000563679 0)
(-0.00599076 -0.000924217 0)
(-0.0060173 -0.000898909 0)
(-0.00441404 -0.00197103 0)
(-0.00612903 -0.00142955 0)
(-0.00173095 -0.00233278 0)
(-0.00702834 -0.00189469 0)
(0.000324945 -0.00259076 0)
(-0.00865326 -0.000308332 0)
(0.000840156 -8.74064e-05 0)
(-0.0106336 0.00241142 0)
(0.00201936 -0.000507771 0)
(-0.00798208 -0.00755107 0)
(0.000195688 -0.0452256 0)
(-0.00211404 0.04441 0)
(-0.000354272 0.0255286 0)
(-0.000917124 0.0086583 0)
(-0.00193476 0.00514078 0)
(-0.00247193 0.00304777 0)
(-0.00445493 0.00249285 0)
(-0.00391546 0.000728436 0)
(-0.00429414 0.000848177 0)
(-0.00441232 0.000521266 0)
(-0.00294532 0.00041187 0)
(-0.00459896 0.000227252 0)
(-0.00214802 0.000516677 0)
(-0.00498016 0.00077274 0)
(-0.00224301 0.000492052 0)
(-0.0061674 0.00161847 0)
(-0.00220989 -0.000440462 0)
(-0.00458851 -0.00243425 0)
(-0.000250347 -0.0149182 0)
(-0.0103977 -0.0225272 0)
(0.00332938 -0.0513706 0)
(-0.00254446 0.0376459 0)
(0.00154855 0.0177438 0)
(-0.00170877 0.00664471 0)
(-0.00274658 0.00430105 0)
(-0.00391292 0.00284601 0)
(-0.00506855 0.00154115 0)
(-0.00507596 -0.000510277 0)
(-0.00493239 -0.000868923 0)
(-0.00507244 -0.00167428 0)
(-0.00286642 -0.00211895 0)
(-0.00470955 -0.00196383 0)
(-0.000482412 -0.00248557 0)
(-0.00394281 -0.00119736 0)
(0.00186167 -0.00271611 0)
(-0.00236627 0.000350588 0)
(0.00440505 -0.00303497 0)
(3.63512e-05 0.000983093 0)
(0.00462769 0.00283723 0)
(-0.00253653 -0.00494756 0)
(0.00268088 -0.0494418 0)
(-0.00247674 0.0435389 0)
(0.00192607 0.0225229 0)
(-0.0029865 0.0115668 0)
(-0.00432237 0.00754611 0)
(-0.00558743 0.0049952 0)
(-0.00577685 0.0033981 0)
(-0.00613936 0.000989231 0)
(-0.0048624 0.000125464 0)
(-0.00546158 -0.000795112 0)
(-0.00266661 -0.00101906 0)
(-0.00472176 -0.000974191 0)
(-0.00123059 -0.00103522 0)
(-0.00422236 -0.000622019 0)
(-0.000344474 -0.00106901 0)
(-0.00416544 -0.000360423 0)
(0.000889791 -0.0025278 0)
(-0.00562352 -0.00173687 0)
(0.00298273 -0.0114982 0)
(-0.00572073 -0.0225357 0)
(0.00393295 -0.0546683 0)
(0.000979339 0.0401475 0)
(0.000496154 0.0215553 0)
(-0.00413608 0.0137872 0)
(-0.00682764 0.00807122 0)
(-0.00865478 0.00488289 0)
(-0.00840507 0.00202279 0)
(-0.00782806 -0.000802944 0)
(-0.00622321 -0.00209293 0)
(-0.00618551 -0.00322805 0)
(-0.00280547 -0.00346454 0)
(-0.00475905 -0.00318887 0)
(0.000293876 -0.0037894 0)
(-0.00368275 -0.00194966 0)
(0.00273037 -0.00387089 0)
(-0.00227322 -0.000482084 0)
(0.00446504 -0.00327195 0)
(-0.00118664 -0.000705069 0)
(0.00486514 0.000548533 0)
(-0.00391425 -0.0057731 0)
(0.00384865 -0.0500351 0)
(-0.000828906 0.0385231 0)
(-0.00201099 0.0240991 0)
(-0.009705 0.0158393 0)
(-0.0110181 0.0115795 0)
(-0.0128229 0.00602464 0)
(-0.0119394 0.0023086 0)
(-0.0100351 -0.00092942 0)
(-0.00687093 -0.00230459 0)
(-0.00690603 -0.00324367 0)
(-0.00316697 -0.00301306 0)
(-0.00505955 -0.00285745 0)
(-0.000722456 -0.00234016 0)
(-0.00441017 -0.00201978 0)
(0.00108654 -0.00220983 0)
(-0.00450162 -0.00128074 0)
(0.00277349 -0.00326116 0)
(-0.00540256 -0.000932923 0)
(0.00349227 -0.00781256 0)
(-0.00411663 -0.0188407 0)
(0.00442803 -0.0554044 0)
(-0.00101095 0.0446017 0)
(-0.000860051 0.0331136 0)
(-0.00892008 0.0249243 0)
(-0.0140626 0.0136846 0)
(-0.0163495 0.00652929 0)
(-0.0157295 -0.000629163 0)
(-0.0124307 -0.00540464 0)
(-0.00703524 -0.00609765 0)
(-0.00604881 -0.00662795 0)
(-0.0022367 -0.00652148 0)
(-0.00410576 -0.00566012 0)
(0.00103665 -0.00560686 0)
(-0.0034875 -0.00393209 0)
(0.00318773 -0.00496924 0)
(-0.00345762 -0.00224095 0)
(0.00555245 -0.00385402 0)
(-0.0023169 -0.00133258 0)
(0.00599483 -0.00264405 0)
(-0.00479237 -0.00953326 0)
(0.00396777 -0.0511554 0)
(-0.00283811 0.039828 0)
(-0.00491034 0.0305066 0)
(-0.0124158 0.0251043 0)
(-0.015793 0.0168357 0)
(-0.0194135 0.00734714 0)
(-0.01877 -0.00197072 0)
(-0.0141579 -0.0105763 0)
(-0.00875496 -0.00880922 0)
(-0.0047301 -0.00674398 0)
(-0.00188816 -0.00468297 0)
(-0.00372354 -0.00478729 0)
(0.000280452 -0.00263772 0)
(-0.00409583 -0.00299277 0)
(0.00233366 -0.00169463 0)
(-0.00494819 -0.00261847 0)
(0.00534776 -0.00425518 0)
(-0.00420714 -2.80093e-06 0)
(0.0042333 -0.00468388 0)
(-0.00389852 -0.0129824 0)
(0.00526221 -0.0546757 0)
(-0.00185902 0.0498209 0)
(-0.00323443 0.0399337 0)
(-0.00902886 0.0350034 0)
(-0.00994232 0.0221776 0)
(-0.0124547 0.00926484 0)
(-0.0138831 -0.00494449 0)
(-0.00977402 -0.0176228 0)
(-0.00841746 -0.0181112 0)
(-0.00221417 -0.0140991 0)
(0.00127982 -0.0091617 0)
(-0.000619484 -0.00824664 0)
(0.00279861 -0.00674715 0)
(-0.00163041 -0.0065319 0)
(0.0021666 -0.0053513 0)
(-0.00400998 -0.00560249 0)
(0.00463272 -0.00578937 0)
(-0.00595436 -0.000251309 0)
(0.00816668 -0.00438549 0)
(-0.00507601 -0.0136524 0)
(0.00400498 -0.0520529 0)
(0.00489663 0.0468831 0)
(0.000568622 0.0419297 0)
(0.00172749 0.0328887 0)
(0.00206757 0.0210677 0)
(-0.00181439 0.0110791 0)
(-0.00226549 -0.00304673 0)
(0.00189242 -0.0151527 0)
(0.00131213 -0.0164133 0)
(-0.000624268 -0.0158223 0)
(-0.000792481 -0.00556017 0)
(5.1485e-06 -0.00504499 0)
(0.000396245 -0.00111517 0)
(-0.00199712 -0.000736102 0)
(-0.000970604 0.00098023 0)
(-0.00686568 -0.00374458 0)
(0.0055275 -0.00195929 0)
(-0.00893364 -0.00233984 0)
(0.00811909 -0.00534057 0)
(-0.00435456 -0.00453351 0)
(0.00651383 -0.0531594 0)
(0.000938627 0.0454092 0)
(0.00540152 0.0412574 0)
(0.0116181 0.0338107 0)
(0.010836 0.0254604 0)
(0.0127694 0.0151771 0)
(0.0151931 -0.006713 0)
(0.013312 -0.0217775 0)
(0.0176896 -0.0165969 0)
(0.0172768 -0.00942607 0)
(0.00938061 -0.00892658 0)
(0.00769527 -0.00845071 0)
(0.00533483 -0.00563183 0)
(0.000719114 -0.00584835 0)
(0.00712962 -0.00173547 0)
(-0.000808555 -0.0128907 0)
(0.00404088 -0.00526497 0)
(-0.00467833 -0.00302935 0)
(0.00357571 -0.0113004 0)
(-0.00661747 -0.0141482 0)
(0.0047153 -0.0533952 0)
(0.00821119 0.0413653 0)
(0.0170932 0.0345679 0)
(0.0211832 0.0289988 0)
(0.0262921 0.0216689 0)
(0.0220364 0.00908159 0)
(0.0323055 -0.00224728 0)
(0.0213234 -0.0163168 0)
(0.0168095 -0.0196244 0)
(0.0133753 -0.0132091 0)
(0.0217284 0.00273095 0)
(0.0192372 -0.00280314 0)
(0.0190067 0.00557123 0)
(0.019539 -0.00108267 0)
(0.0146656 0.00169345 0)
(0.0155901 0.00277223 0)
(-0.00412574 0.00202367 0)
(-0.00365046 -0.0002193 0)
(-0.00114993 -0.00203223 0)
(-0.00518681 -0.00225744 0)
(0.00715764 -0.0529639 0)
(0.00317994 0.0189921 0)
(0.0265351 0.0273517 0)
(0.0283376 0.0277091 0)
(0.0390906 0.0231322 0)
(0.0372585 0.0131342 0)
(0.0374737 -0.00367451 0)
(0.0289421 -0.00847423 0)
(0.0127362 -0.00959909 0)
(0.000982853 -0.0115352 0)
(-0.00215641 -0.0104756 0)
(-0.00104316 -0.00654782 0)
(-0.00810088 -0.00554916 0)
(0.00260904 -0.000855018 0)
(-0.00862051 0.00150698 0)
(0.0042855 0.00416441 0)
(-0.000860837 0.0101635 0)
(0.00713987 -0.00568848 0)
(0.00485183 -0.0138788 0)
(-0.00727323 -0.0250839 0)
(0.00538309 -0.055086 0)
(0.00443795 0.0047353 0)
(0.0210959 0.00868374 0)
(0.0285399 0.0108419 0)
(0.0344726 0.0134298 0)
(0.0391253 0.011741 0)
(0.0364396 0.00590297 0)
(0.0340573 0.00578772 0)
(0.0312243 0.00380169 0)
(0.0266415 0.00315993 0)
(0.0219544 0.00426304 0)
(0.0127724 0.00265372 0)
(0.0144239 0.00440225 0)
(0.00384203 -0.00237521 0)
(0.0104569 0.00393368 0)
(0.000191746 -0.00541191 0)
(0.00540233 0.00232508 0)
(0.00379871 -0.00141959 0)
(0.0112635 0.0119504 0)
(-0.00458121 0.00367242 0)
(0.00912794 -0.0517503 0)
(0.00743155 -0.00796701 0)
(0.00451369 0.00770353 0)
(0.0075953 0.0129702 0)
(0.0116274 0.00924485 0)
(0.0129371 0.00912147 0)
(0.0103043 -0.00106457 0)
(0.00615912 -0.000506239 0)
(0.00900189 -0.00316843 0)
(-0.000312377 -0.00140241 0)
(0.00860398 0.000981702 0)
(-0.00181462 -0.000100829 0)
(0.00563354 0.00219862 0)
(0.00222505 0.00168004 0)
(-0.00245324 0.00314093 0)
(0.00280561 0.00902359 0)
(-0.00265973 0.00260653 0)
(-0.00863282 -0.015579 0)
(0.0102827 -0.00535714 0)
(-0.0053589 -0.0285851 0)
(0.00649026 -0.0546 0)
(-0.00758196 -0.00664742 0)
(0.00397812 0.00938241 0)
(0.007784 0.00655042 0)
(0.00662394 0.0100769 0)
(0.0155981 0.0122375 0)
(0.0146625 0.0111983 0)
(0.0166046 0.00739896 0)
(0.0166496 0.00755949 0)
(0.0152884 0.00578448 0)
(0.0166642 0.00474994 0)
(0.014483 0.00731634 0)
(0.0175628 0.00298421 0)
(0.0118088 0.00574227 0)
(0.0195521 0.00605004 0)
(0.0087556 -0.00436076 0)
(0.0217393 0.0129339 0)
(0.0127128 -0.0074777 0)
(0.0120523 0.00781086 0)
(-0.000358073 0.0145726 0)
(0.0138212 -0.0456832 0)
(-0.0179435 -0.00471499 0)
(-0.0113222 -0.00356828 0)
(-0.0194448 0.00589194 0)
(-0.00941265 0.00216037 0)
(-0.0131085 0.00239764 0)
(-0.00474298 -0.000339823 0)
(-0.0114509 3.19517e-05 0)
(-0.00377157 -0.00106059 0)
(-0.0118705 -0.000549083 0)
(-0.00301948 0.000188915 0)
(-0.0121305 -1.98999e-05 0)
(0.00164381 0.00157562 0)
(-0.0132497 -0.00113854 0)
(0.00680786 0.00639666 0)
(-0.00897255 0.00154345 0)
(-3.19849e-05 0.00383369 0)
(0.00445423 -0.00607607 0)
(-0.0157196 6.63004e-05 0)
(0.0193036 -0.0312157 0)
(0.0129186 -0.0538255 0)
(0.00065441 0.0178074 0)
(0.0145471 0.0131535 0)
(0.0113481 0.00494878 0)
(0.0210542 0.00569992 0)
(0.0226241 0.00583251 0)
(0.0272004 0.00659553 0)
(0.0307782 0.00642815 0)
(0.0336052 0.00563474 0)
(0.0365386 0.006043 0)
(0.0386071 0.00441666 0)
(0.0414306 0.00500847 0)
(0.0427988 0.00306845 0)
(0.0456069 0.00428697 0)
(0.0470105 0.000773528 0)
(0.0494911 0.00427779 0)
(0.0513909 -0.00086394 0)
(0.0530031 0.00402173 0)
(0.0509158 -0.000588538 0)
(0.0461524 -0.00495634 0)
(0.024351 0.000956755 0)
)
;

boundaryField
{
    movingWall
    {
        type            fixedValue;
        value           uniform (1 0 0);
    }
    fixedWalls
    {
        type            noSlip;
    }
    frontAndBack
    {
        type            empty;
    }
}


// ************************************************************************* //
