/*--------------------------------*- C++ -*----------------------------------*\
| =========                 |                                                 |
| \\      /  F ield         | OpenFOAM: The Open Source CFD Toolbox           |
|  \\    /   O peration     | Version:  5.x                                   |
|   \\  /    A nd           | Web:      www.OpenFOAM.org                      |
|    \\/     M anipulation  |                                                 |
\*---------------------------------------------------------------------------*/
FoamFile
{
    version     2.0;
    format      ascii;
    class       volScalarField;
    location    "1.7";
    object      p;
}
// * * * * * * * * * * * * * * * * * * * * * * * * * * * * * * * * * * * * * //

dimensions      [0 2 -2 0 0 0 0];

internalField   nonuniform List<scalar> 
400
(
6.22696e-11
1.81997e-07
5.6967e-07
1.16461e-06
1.97232e-06
2.99744e-06
4.24243e-06
5.7055e-06
7.37858e-06
9.24518e-06
1.12784e-05
1.34392e-05
1.56742e-05
1.79166e-05
2.00869e-05
2.20961e-05
2.38506e-05
2.5259e-05
2.62415e-05
2.67324e-05
-2.03616e-07
-2.37274e-08
3.6072e-07
9.51987e-07
1.7568e-06
2.78131e-06
4.02963e-06
5.50176e-06
7.19141e-06
9.08376e-06
1.11532e-05
1.33619e-05
1.56578e-05
1.79711e-05
2.02196e-05
2.23105e-05
2.41442e-05
2.56218e-05
2.66561e-05
2.71739e-05
-6.3888e-07
-4.6307e-07
-8.49557e-08
4.9928e-07
1.29886e-06
2.32297e-06
3.57919e-06
5.07119e-06
6.79636e-06
8.7434e-06
1.08897e-05
1.31993e-05
1.56208e-05
1.80825e-05
2.04968e-05
2.27617e-05
2.47651e-05
2.63922e-05
2.75388e-05
2.81154e-05
-1.29911e-06
-1.13037e-06
-7.63556e-07
-1.92393e-07
5.96257e-07
1.61636e-06
2.88085e-06
4.39912e-06
6.17439e-06
8.20088e-06
1.04609e-05
1.29224e-05
1.55363e-05
1.82284e-05
2.09031e-05
2.3445e-05
2.57219e-05
2.75931e-05
2.89256e-05
2.96006e-05
-2.18239e-06
-2.02522e-06
-1.67755e-06
-1.1295e-06
-3.62378e-07
6.44551e-07
1.91179e-06
3.45679e-06
5.29102e-06
7.41684e-06
9.82416e-06
1.2487e-05
1.53619e-05
1.83729e-05
2.14157e-05
2.43566e-05
2.70357e-05
2.92731e-05
3.08899e-05
3.17183e-05
-3.2836e-06
-3.14473e-06
-2.82811e-06
-2.31892e-06
-1.59082e-06
-6.13989e-07
6.42158e-07
2.20579e-06
4.09942e-06
6.33658e-06
8.91799e-06
1.18276e-05
1.5033e-05
1.84585e-05
2.19929e-05
2.54819e-05
2.87283e-05
3.14967e-05
3.35371e-05
3.4602e-05
-4.59319e-06
-4.48249e-06
-4.21451e-06
-3.76765e-06
-3.10536e-06
-2.18592e-06
-9.65787e-07
5.96869e-07
2.53874e-06
4.88783e-06
7.65952e-06
1.08525e-05
1.44558e-05
1.83969e-05
2.25639e-05
2.67842e-05
3.0815e-05
3.43453e-05
3.70158e-05
3.84527e-05
-6.09448e-06
-6.02629e-06
-5.83231e-06
-5.4816e-06
-4.92404e-06
-4.1026e-06
-2.95754e-06
-1.43023e-06
5.33433e-07
2.97957e-06
5.94178e-06
9.43711e-06
1.34995e-05
1.80565e-05
2.30109e-05
2.81843e-05
3.32876e-05
3.79104e-05
4.15268e-05
4.3574e-05
-7.75976e-06
-7.75514e-06
-7.67125e-06
-7.46426e-06
-7.06588e-06
-6.39962e-06
-5.38608e-06
-3.94676e-06
-2.00686e-06
5.0183e-07
3.63409e-06
7.40742e-06
1.19887e-05
1.72462e-05
2.31446e-05
2.9528e-05
3.60803e-05
4.22754e-05
4.73289e-05
5.04351e-05
-9.54483e-06
-9.63547e-06
-9.71292e-06
-9.71553e-06
-9.55032e-06
-9.11647e-06
-8.31144e-06
-7.03443e-06
-5.18726e-06
-2.67343e-06
6.06006e-07
4.76994e-06
9.71953e-06
1.56954e-05
2.2668e-05
3.05342e-05
3.90012e-05
4.74647e-05
5.47251e-05
5.97789e-05
-1.13776e-05
-1.1616e-05
-1.19281e-05
-1.22312e-05
-1.23974e-05
-1.22965e-05
-1.17999e-05
-1.0784e-05
-9.12851e-06
-6.71357e-06
-3.4154e-06
8.91504e-07
6.30238e-06
1.30075e-05
2.11283e-05
3.07177e-05
4.16243e-05
5.33182e-05
6.39877e-05
7.2802e-05
-1.31559e-05
-1.36261e-05
-1.42759e-05
-1.50033e-05
-1.56295e-05
-1.5988e-05
-1.5923e-05
-1.52896e-05
-1.39497e-05
-1.17649e-05
-8.58574e-06
-4.24172e-06
1.47354e-06
8.72756e-06
1.78903e-05
2.92778e-05
4.30928e-05
5.92131e-05
7.50852e-05
9.13993e-05
-1.46308e-05
-1.55816e-05
-1.66933e-05
-1.80314e-05
-1.92791e-05
-2.02491e-05
-2.07586e-05
-2.06471e-05
-1.97658e-05
-1.79706e-05
-1.5104e-05
-1.0975e-05
-5.32256e-06
2.08379e-06
1.1908e-05
2.48325e-05
4.17708e-05
6.36297e-05
8.68692e-05
0.000118326
-1.59593e-05
-1.72717e-05
-1.90861e-05
-2.12603e-05
-2.33626e-05
-2.51355e-05
-2.63868e-05
-2.69484e-05
-2.66728e-05
-2.54281e-05
-2.30634e-05
-1.93266e-05
-1.3799e-05
-5.39991e-06
4.37583e-06
1.74569e-05
3.61241e-05
6.3632e-05
9.5107e-05
0.000155107
-1.54337e-05
-1.99797e-05
-2.13814e-05
-2.52933e-05
-2.81593e-05
-3.08517e-05
-3.29575e-05
-3.43139e-05
-3.47702e-05
-3.42397e-05
-3.27164e-05
-3.02052e-05
-2.67026e-05
-2.2415e-05
-1.47264e-05
-4.66024e-06
1.26106e-05
4.92028e-05
7.98052e-05
0.00019087
-1.48444e-05
-1.59332e-05
-2.19832e-05
-2.55905e-05
-3.12888e-05
-3.59966e-05
-3.99042e-05
-4.25655e-05
-4.39573e-05
-4.4128e-05
-4.3232e-05
-4.13498e-05
-3.85824e-05
-3.47034e-05
-2.88868e-05
-1.93502e-05
-7.28043e-06
2.85017e-05
1.80795e-05
0.000181845
-8.72051e-06
-2.79416e-05
-2.80412e-05
-4.13887e-05
-4.38836e-05
-4.8903e-05
-5.21053e-05
-5.44187e-05
-5.58203e-05
-5.63101e-05
-5.62974e-05
-5.58951e-05
-5.57707e-05
-5.69712e-05
-5.8646e-05
-6.20115e-05
-8.14484e-05
-5.06527e-05
-0.000140364
0.000114548
-7.12373e-06
-1.44232e-05
-2.14884e-05
-2.46259e-05
-3.70933e-05
-4.55812e-05
-5.36168e-05
-5.94829e-05
-6.34784e-05
-6.52707e-05
-6.61684e-05
-6.60319e-05
-6.65843e-05
-6.89186e-05
-7.34726e-05
-8.11151e-05
-0.000123935
-8.21639e-05
-0.000193622
8.22929e-05
3.54364e-05
-4.03403e-05
-3.77662e-05
-6.75878e-05
-6.74646e-05
-7.92117e-05
-8.31728e-05
-8.56677e-05
-8.72902e-05
-8.59033e-05
-8.59103e-05
-8.4857e-05
-8.27588e-05
-9.45214e-05
-9.83589e-05
-0.000126311
-0.000227051
-0.000243354
-0.000231593
0.000169431
-6.76968e-05
-6.65363e-06
-2.19988e-06
-3.29665e-05
-5.29171e-05
-6.54002e-05
-7.54907e-05
-8.11855e-05
-8.77758e-05
-8.5382e-05
-8.88818e-05
-8.33984e-05
-8.57642e-05
-9.00558e-05
-9.98868e-05
-0.000121812
-0.000126884
-5.6972e-05
0.000312988
0.00117287
)
;

boundaryField
{
    movingWall
    {
        type            zeroGradient;
    }
    fixedWalls
    {
        type            zeroGradient;
    }
    frontAndBack
    {
        type            empty;
    }
}


// ************************************************************************* //
