/*--------------------------------*- C++ -*----------------------------------*\
| =========                 |                                                 |
| \\      /  F ield         | OpenFOAM: The Open Source CFD Toolbox           |
|  \\    /   O peration     | Version:  5.x                                   |
|   \\  /    A nd           | Web:      www.OpenFOAM.org                      |
|    \\/     M anipulation  |                                                 |
\*---------------------------------------------------------------------------*/
FoamFile
{
    version     2.0;
    format      ascii;
    class       volScalarField;
    location    "17.6";
    object      p;
}
// * * * * * * * * * * * * * * * * * * * * * * * * * * * * * * * * * * * * * //

dimensions      [0 2 -2 0 0 0 0];

internalField   nonuniform List<scalar> 
400
(
4.28967e-10
-0.000758403
-0.00132862
-0.00169726
-0.00187291
-0.00197738
-0.00202158
-0.00204341
-0.00205349
-0.00205904
-0.00205854
-0.00204482
-0.00200735
-0.00197014
-0.00190602
-0.00179344
-0.00156973
-0.00122329
-0.000915088
0.00051183
-0.000821882
-0.00135141
-0.0017085
-0.0018895
-0.00198022
-0.00202589
-0.00204751
-0.00205583
-0.00205805
-0.00206685
-0.00207329
-0.00207036
-0.00203339
-0.00199463
-0.00197081
-0.00190622
-0.00186198
-0.00166708
-0.0015884
-0.00054536
-0.00137712
-0.00173641
-0.00189446
-0.00198428
-0.00200356
-0.00202632
-0.00202928
-0.0020377
-0.00204401
-0.00205144
-0.00205731
-0.00204927
-0.00202871
-0.00198499
-0.00196448
-0.00187506
-0.00187717
-0.00179606
-0.00167404
-0.00125501
-0.00170788
-0.0019503
-0.00199167
-0.00202855
-0.00202777
-0.00203605
-0.00204101
-0.00204667
-0.00205319
-0.00205994
-0.00206673
-0.00205787
-0.00203654
-0.00200262
-0.00200898
-0.00199554
-0.00199751
-0.00188734
-0.0018894
-0.00169985
-0.00190653
-0.00203528
-0.00203787
-0.00204321
-0.0020336
-0.00203565
-0.00203258
-0.00203631
-0.00204101
-0.00204128
-0.00204299
-0.00203287
-0.00202469
-0.00202775
-0.00204993
-0.00204882
-0.00204075
-0.00198268
-0.00193682
-0.00190573
-0.00198273
-0.00207235
-0.00204122
-0.00204616
-0.00203447
-0.00203367
-0.00203551
-0.00203884
-0.00204476
-0.00204701
-0.00205591
-0.00205809
-0.00204399
-0.00201188
-0.00205576
-0.0020369
-0.00207587
-0.00202911
-0.00203453
-0.00200277
-0.00202551
-0.0020791
-0.00207041
-0.00205224
-0.00204192
-0.00203567
-0.00203595
-0.00203546
-0.00204485
-0.00203799
-0.00204014
-0.00203945
-0.00204277
-0.00203788
-0.00204521
-0.00205451
-0.00208683
-0.00205727
-0.00203175
-0.00205479
-0.00203159
-0.00206858
-0.00203364
-0.0020306
-0.00202334
-0.00201909
-0.00202092
-0.00203035
-0.00202511
-0.00202974
-0.00207157
-0.00205686
-0.00206578
-0.00206893
-0.00207204
-0.00204878
-0.00208491
-0.00208104
-0.00208614
-0.00207568
-0.00201884
-0.00203404
-0.00204251
-0.00202527
-0.00202933
-0.00201573
-0.00203372
-0.00203035
-0.0020719
-0.00206588
-0.00208915
-0.00202972
-0.00215273
-0.00207392
-0.00207526
-0.00206447
-0.0021319
-0.00208101
-0.00205637
-0.0020072
-0.00199647
-0.00201224
-0.00200925
-0.00200101
-0.00200116
-0.0019995
-0.00200663
-0.00200828
-0.00203288
-0.00206618
-0.00205634
-0.0020503
-0.00210798
-0.0021866
-0.00208547
-0.00205149
-0.00202313
-0.00202698
-0.0020444
-0.00194227
-0.00196884
-0.00197131
-0.00197904
-0.0019819
-0.0019848
-0.0019857
-0.00201547
-0.00201952
-0.00202114
-0.00207956
-0.00213368
-0.00216844
-0.00218633
-0.00220654
-0.00210865
-0.0020736
-0.00208661
-0.0019558
-0.00202877
-0.00195981
-0.00193068
-0.00193154
-0.00193512
-0.00194618
-0.00197141
-0.00197953
-0.00201217
-0.00204963
-0.002029
-0.00212054
-0.00215579
-0.00220937
-0.00214024
-0.00210055
-0.00207714
-0.00199352
-0.00209809
-0.0019823
-0.00204625
-0.00200567
-0.00189759
-0.00191156
-0.00192803
-0.00193542
-0.00195989
-0.00195192
-0.00199249
-0.00201718
-0.00200374
-0.00208194
-0.00211432
-0.00217784
-0.0021057
-0.00210057
-0.00216195
-0.00199108
-0.00215395
-0.00199077
-0.00207533
-0.00187895
-0.00185601
-0.00186231
-0.00189512
-0.00188152
-0.00193101
-0.00198021
-0.00189769
-0.00196901
-0.00193241
-0.00205018
-0.00216925
-0.00221005
-0.00217666
-0.00208673
-0.00212995
-0.00193961
-0.00200911
-0.00184669
-0.00188386
-0.0017497
-0.00179425
-0.00180632
-0.00186211
-0.00186987
-0.0019098
-0.00189456
-0.00189971
-0.00196535
-0.00192466
-0.00202893
-0.00214303
-0.00219425
-0.00216455
-0.00211452
-0.00214574
-0.00200853
-0.00199486
-0.00176634
-0.00196449
-0.00182825
-0.00172045
-0.00175229
-0.00181497
-0.00180588
-0.00186901
-0.00189069
-0.00186793
-0.0019677
-0.001933
-0.00201726
-0.00207044
-0.00205082
-0.00203863
-0.00189833
-0.00192531
-0.00186533
-0.00204199
-0.00183859
-0.00186851
-0.00180303
-0.00159546
-0.00167958
-0.00176134
-0.00181352
-0.00181433
-0.00186503
-0.0018444
-0.00195819
-0.00203119
-0.00206984
-0.00208948
-0.00207971
-0.00199805
-0.00200851
-0.00201337
-0.00207454
-0.00205031
-0.00196636
-0.00200012
-0.00170427
-0.00142592
-0.00160624
-0.00168984
-0.00175302
-0.00178887
-0.0018544
-0.00182965
-0.00197706
-0.00203736
-0.00213434
-0.00209927
-0.00202661
-0.00205885
-0.00202412
-0.001917
-0.00188253
-0.00191435
-0.00174381
-0.00155871
-0.00142735
-0.00115279
-0.00139232
-0.00157638
-0.00168549
-0.00171593
-0.00172114
-0.00170328
-0.00196245
-0.00218492
-0.00232533
-0.00220158
-0.00206194
-0.00215369
-0.00192394
-0.00186328
-0.00182232
-0.00188967
-0.00204619
-0.00195035
-0.000914157
-0.000855466
-0.00117088
-0.00143444
-0.00162793
-0.00174408
-0.00182514
-0.00187201
-0.00196052
-0.00206623
-0.00213496
-0.00211169
-0.00204356
-0.00190993
-0.0018274
-0.00181731
-0.00173247
-0.00172175
-0.0014072
-0.000800929
0.00120884
)
;

boundaryField
{
    movingWall
    {
        type            zeroGradient;
    }
    fixedWalls
    {
        type            zeroGradient;
    }
    frontAndBack
    {
        type            empty;
    }
}


// ************************************************************************* //
