/*--------------------------------*- C++ -*----------------------------------*\
| =========                 |                                                 |
| \\      /  F ield         | OpenFOAM: The Open Source CFD Toolbox           |
|  \\    /   O peration     | Version:  5.x                                   |
|   \\  /    A nd           | Web:      www.OpenFOAM.org                      |
|    \\/     M anipulation  |                                                 |
\*---------------------------------------------------------------------------*/
FoamFile
{
    version     2.0;
    format      ascii;
    class       surfaceScalarField;
    location    "0.7";
    object      phi;
}
// * * * * * * * * * * * * * * * * * * * * * * * * * * * * * * * * * * * * * //

dimensions      [0 3 -1 0 0 0 0];

internalField   nonuniform List<scalar> 
760
(
-2.79926e-09
2.79926e-09
-5.55914e-09
2.75988e-09
-8.18089e-09
2.62175e-09
-1.06006e-08
2.41966e-09
-1.27603e-08
2.15977e-09
-1.46097e-08
1.84934e-09
-1.6106e-08
1.49636e-09
-1.72151e-08
1.10912e-09
-1.79112e-08
6.96058e-10
-1.81769e-08
2.65675e-10
-1.80033e-08
-1.73593e-10
-1.73907e-08
-6.12568e-10
-1.63485e-08
-1.04216e-09
-1.48961e-08
-1.45249e-09
-1.30629e-08
-1.83311e-09
-1.08898e-08
-2.17318e-09
-8.4279e-09
-2.46186e-09
-5.739e-09
-2.6889e-09
-2.89365e-09
-2.84535e-09
-2.89365e-09
-2.89911e-09
5.69837e-09
-5.75676e-09
5.61753e-09
-8.47042e-09
5.33542e-09
-1.09738e-08
4.92301e-09
-1.32072e-08
4.39318e-09
-1.51188e-08
3.761e-09
-1.66654e-08
3.04288e-09
-1.7812e-08
2.25574e-09
-1.85325e-08
1.41662e-09
-1.88094e-08
5.42577e-10
-1.86334e-08
-3.49632e-10
-1.80044e-08
-1.24157e-09
-1.69314e-08
-2.11518e-09
-1.54333e-08
-2.95055e-09
-1.35399e-08
-3.72653e-09
-1.12922e-08
-4.42093e-09
-8.74268e-09
-5.01134e-09
-5.95521e-09
-5.47638e-09
-3.00333e-09
-5.79723e-09
-5.89698e-09
-3.04115e-09
8.73952e-09
-6.03764e-09
8.61401e-09
-8.88103e-09
8.17881e-09
-1.15016e-08
7.54357e-09
-1.38373e-08
6.72892e-09
-1.58351e-08
5.75874e-09
-1.74508e-08
4.65859e-09
-1.86496e-08
3.4545e-09
-1.94052e-08
2.17223e-09
-1.96999e-08
8.37261e-10
-1.95238e-08
-5.25709e-10
-1.88761e-08
-1.8893e-09
-1.77644e-08
-3.2268e-09
-1.62066e-08
-4.50835e-09
-1.42314e-08
-5.70176e-09
-1.18796e-08
-6.77271e-09
-9.20506e-09
-7.6859e-09
-6.27428e-09
-8.40716e-09
-3.16559e-09
-8.90592e-09
-9.06257e-09
-3.26016e-09
1.19997e-08
-6.47031e-09
1.18242e-08
-9.51266e-09
1.12212e-08
-1.23122e-08
1.03431e-08
-1.48034e-08
9.22013e-09
-1.69313e-08
7.88662e-09
-1.86512e-08
6.37855e-09
-1.99284e-08
4.73172e-09
-2.0737e-08
2.9808e-09
-2.10591e-08
1.15935e-09
-2.08841e-08
-7.00705e-10
-2.02097e-08
-2.56368e-09
-1.90416e-08
-4.39492e-09
-1.73951e-08
-6.15484e-09
-1.5297e-08
-7.79984e-09
-1.27875e-08
-9.28227e-09
-9.92147e-09
-1.05519e-08
-6.76973e-09
-1.15589e-08
-3.41791e-09
-1.22577e-08
-1.24805e-08
-3.56384e-09
1.55635e-08
-7.06938e-09
1.53297e-08
-1.03853e-08
1.45371e-08
-1.34292e-08
1.3387e-08
-1.6131e-08
1.1922e-08
-1.84339e-08
1.01895e-08
-2.02932e-08
8.23783e-09
-2.1675e-08
6.11357e-09
-2.25546e-08
3.86035e-09
-2.29144e-08
1.51917e-09
-2.2743e-08
-8.72074e-10
-2.2036e-08
-3.2707e-09
-2.07956e-08
-5.63526e-09
-1.90333e-08
-7.91721e-09
-1.67719e-08
-1.00613e-08
-1.40492e-08
-1.20049e-08
-1.09211e-08
-1.368e-08
-7.46335e-09
-1.50166e-08
-3.77197e-09
-1.59491e-08
-1.62524e-08
-3.96346e-09
1.9527e-08
-7.85602e-09
1.92223e-08
-1.15276e-08
1.82087e-08
-1.48858e-08
1.67452e-08
-1.78555e-08
1.48916e-08
-2.03784e-08
1.27124e-08
-2.24113e-08
1.02708e-08
-2.39231e-08
7.62534e-09
-2.48913e-08
4.8286e-09
-2.53e-08
1.92785e-09
-2.5137e-08
-1.0351e-09
-2.43947e-08
-4.01304e-09
-2.30702e-08
-6.95968e-09
-2.11683e-08
-9.8191e-09
-1.8705e-08
-1.25246e-08
-1.5713e-08
-1.4997e-08
-1.22468e-08
-1.71462e-08
-8.38773e-09
-1.88757e-08
-4.24542e-09
-2.00914e-08
-2.04979e-08
-4.47539e-09
2.40024e-08
-8.86053e-09
2.36074e-08
-1.29796e-08
2.23277e-08
-1.67276e-08
2.04932e-08
-2.0024e-08
1.8188e-08
-2.2811e-08
1.54994e-08
-2.50496e-08
1.25094e-08
-2.67142e-08
9.28995e-09
-2.77877e-08
5.90206e-09
-2.8257e-08
2.39723e-09
-2.81101e-08
-1.18199e-09
-2.73349e-08
-4.78834e-09
-2.5921e-08
-8.37355e-09
-2.38624e-08
-1.18776e-08
-2.11634e-08
-1.52236e-08
-1.78462e-08
-1.83142e-08
-1.39602e-08
-2.10322e-08
-9.59075e-09
-2.32451e-08
-4.86473e-09
-2.48174e-08
-2.53626e-08
-5.12342e-09
2.91258e-08
-1.01261e-08
2.86101e-08
-1.47973e-08
2.69989e-08
-1.90164e-08
2.47122e-08
-2.26985e-08
2.18701e-08
-2.579e-08
1.85909e-08
-2.82609e-08
1.49803e-08
-3.00964e-08
1.11254e-08
-3.12887e-08
7.09434e-09
-3.18308e-08
2.93935e-09
-3.17119e-08
-1.3009e-09
-3.09137e-08
-5.58656e-09
-2.94154e-08
-9.87186e-09
-2.71945e-08
-1.40986e-08
-2.42355e-08
-1.81826e-08
-2.05416e-08
-2.20082e-08
-1.6149e-08
-2.54248e-08
-1.11428e-08
-2.82513e-08
-5.66983e-09
-3.02904e-08
-3.10324e-08
-5.94279e-09
3.50686e-08
-1.1715e-08
3.43823e-08
-1.70589e-08
3.23427e-08
-2.18355e-08
2.94889e-08
-2.59592e-08
2.59938e-08
-2.93874e-08
2.20191e-08
-3.21073e-08
1.77003e-08
-3.41227e-08
1.31408e-08
-3.54416e-08
8.41322e-09
-3.60675e-08
3.5653e-09
-3.59936e-08
-1.37482e-09
-3.51938e-08
-6.38634e-09
-3.36322e-08
-1.14334e-08
-3.12622e-08
-1.64686e-08
-2.8037e-08
-2.14077e-08
-2.39264e-08
-2.61188e-08
-1.89388e-08
-3.04124e-08
-1.31485e-08
-3.40417e-08
-6.72268e-09
-3.67161e-08
-3.77551e-08
-6.98729e-09
4.20559e-08
-1.37184e-08
4.11135e-08
-1.98751e-08
3.84994e-08
-2.52985e-08
3.49123e-08
-2.99102e-08
3.06055e-08
-3.3691e-08
2.57999e-08
-3.66587e-08
2.06679e-08
-3.88472e-08
1.53293e-08
-4.02901e-08
9.8561e-09
-4.10079e-08
4.28317e-09
-4.10018e-08
-1.3809e-09
-4.02378e-08
-7.15034e-09
-3.86588e-08
-1.30125e-08
-3.61834e-08
-1.89441e-08
-3.27175e-08
-2.48736e-08
-2.81753e-08
-3.06609e-08
-2.25119e-08
-3.60759e-08
-1.57671e-08
-4.07864e-08
-8.12321e-09
-4.43601e-08
-4.58783e-08
-8.3423e-09
5.03982e-08
-1.6273e-08
4.90442e-08
-2.34047e-08
4.56311e-08
-2.95603e-08
4.10679e-08
-3.46861e-08
3.57313e-08
-3.88069e-08
2.99208e-08
-4.19911e-08
2.38521e-08
-4.43204e-08
1.76586e-08
-4.58674e-08
1.14031e-08
-4.66789e-08
5.09469e-09
-4.67696e-08
-1.29021e-09
-4.60992e-08
-7.82072e-09
-4.45848e-08
-1.45269e-08
-4.20957e-08
-2.14331e-08
-3.84683e-08
-2.8501e-08
-3.35287e-08
-3.56005e-08
-2.71353e-08
-4.24692e-08
-1.92469e-08
-4.86749e-08
-1.00404e-08
-5.35665e-08
-5.59187e-08
-1.01497e-08
6.05478e-08
-1.95886e-08
5.84831e-08
-2.78799e-08
5.39224e-08
-3.48356e-08
4.80236e-08
-4.04616e-08
4.13572e-08
-4.48612e-08
3.43204e-08
-4.81828e-08
2.71737e-08
-5.05801e-08
2.00559e-08
-5.21842e-08
1.30072e-08
-5.30802e-08
5.99072e-09
-5.33023e-08
-1.06818e-09
-5.28081e-08
-8.31489e-09
-5.14873e-08
-1.58477e-08
-4.91495e-08
-2.37709e-08
-4.55292e-08
-3.21214e-08
-4.03162e-08
-4.08135e-08
-3.32063e-08
-4.95791e-08
-2.39839e-08
-5.78973e-08
-1.27744e-08
-6.4776e-08
-6.86931e-08
-1.26515e-08
7.31994e-08
-2.39938e-08
6.98253e-08
-3.36441e-08
6.35727e-08
-4.14228e-08
5.58024e-08
-4.74636e-08
4.7398e-08
-5.19988e-08
3.88555e-08
-5.53028e-08
3.04778e-08
-5.76384e-08
2.23915e-08
-5.92143e-08
1.4583e-08
-6.01677e-08
6.94411e-09
-6.05589e-08
-6.76973e-10
-6.03517e-08
-8.522e-09
-5.94122e-08
-1.67872e-08
-5.74853e-08
-2.56978e-08
-5.41828e-08
-3.54238e-08
-4.89862e-08
-4.60101e-08
-4.13193e-08
-5.7246e-08
-3.06258e-08
-6.85908e-08
-1.68835e-08
-7.85184e-08
-8.55766e-08
-1.63236e-08
8.9523e-08
-3.00263e-08
8.3528e-08
-4.12132e-08
7.47596e-08
-4.97382e-08
6.43274e-08
-5.5974e-08
5.36338e-08
-6.03684e-08
4.325e-08
-6.33983e-08
3.35077e-08
-6.54664e-08
2.44596e-08
-6.68767e-08
1.59932e-08
-6.78303e-08
7.89777e-09
-6.84251e-08
-8.22455e-11
-6.86426e-08
-8.30446e-09
-6.83394e-08
-1.70905e-08
-6.72053e-08
-2.68318e-08
-6.47224e-08
-3.79068e-08
-6.01178e-08
-5.06147e-08
-5.23643e-08
-6.49995e-08
-4.02481e-08
-8.07071e-08
-2.34537e-08
-9.53127e-08
-1.0903e-07
-2.17318e-08
1.11255e-07
-3.84546e-08
1.00251e-07
-5.13401e-08
8.76451e-08
-6.0342e-08
7.33293e-08
-6.63189e-08
5.96107e-08
-7.01126e-08
4.70437e-08
-7.24709e-08
3.5866e-08
-7.39665e-08
2.59552e-08
-7.50083e-08
1.70351e-08
-7.58641e-08
8.75354e-09
-7.66808e-08
7.34476e-10
-7.74746e-08
-7.51068e-09
-7.81256e-08
-1.64395e-08
-7.83068e-08
-2.66505e-08
-7.74022e-08
-3.88114e-08
-7.43753e-08
-5.36416e-08
-6.7641e-08
-7.17339e-08
-5.4636e-08
-9.3712e-08
-3.46618e-08
-1.15287e-07
-1.43692e-07
-3.22639e-08
1.43519e-07
-5.10938e-08
1.19081e-07
-6.52921e-08
1.01843e-07
-7.39706e-08
8.20078e-08
-7.88643e-08
6.45045e-08
-8.13235e-08
4.95028e-08
-8.24303e-08
3.69728e-08
-8.29359e-08
2.64607e-08
-8.33426e-08
1.74417e-08
-8.39664e-08
9.37743e-09
-8.49748e-08
1.74281e-09
-8.64779e-08
-6.00757e-09
-8.84224e-08
-1.4495e-08
-9.05624e-08
-2.45105e-08
-9.2291e-08
-3.70828e-08
-9.23814e-08
-5.35512e-08
-8.87952e-08
-7.532e-08
-7.63495e-08
-1.06158e-07
-5.54117e-08
-1.36225e-07
-1.99104e-07
-3.95711e-08
1.8309e-07
-6.65962e-08
1.46106e-07
-8.38969e-08
1.19144e-07
-9.13841e-08
8.9495e-08
-9.39045e-08
6.70249e-08
-9.39455e-08
4.95438e-08
-9.30291e-08
3.60564e-08
-9.20451e-08
2.54767e-08
-9.1501e-08
1.68977e-08
-9.16924e-08
9.56889e-09
-9.28536e-08
2.90397e-09
-9.5108e-08
-3.75315e-09
-9.85921e-08
-1.1011e-08
-1.03279e-07
-1.98238e-08
-1.08875e-07
-3.14868e-08
-1.14157e-07
-4.82687e-08
-1.17665e-07
-7.18127e-08
-1.08796e-07
-1.15026e-07
-9.36025e-08
-1.51418e-07
-2.92706e-07
-8.81022e-08
2.71192e-07
-1.03136e-07
1.6114e-07
-1.11956e-07
1.27964e-07
-1.14096e-07
9.16343e-08
-1.11493e-07
6.44222e-08
-1.07561e-07
4.56122e-08
-1.03752e-07
3.22476e-08
-1.00762e-07
2.24867e-08
-9.89514e-08
1.50866e-08
-9.85395e-08
9.15699e-09
-9.96584e-08
4.02289e-09
-1.02566e-07
-8.46031e-10
-1.07838e-07
-5.73872e-09
-1.15944e-07
-1.17173e-08
-1.27782e-07
-1.96485e-08
-1.42723e-07
-3.33284e-08
-1.61579e-07
-5.29569e-08
-1.66729e-07
-1.09876e-07
-1.54531e-07
-1.63616e-07
-4.47237e-07
-1.95592e-07
4.66784e-07
-1.89411e-07
1.54958e-07
-1.79199e-07
1.17753e-07
-1.60735e-07
7.31705e-08
-1.41986e-07
4.56732e-08
-1.26881e-07
3.05071e-08
-1.15613e-07
2.09796e-08
-1.07595e-07
1.44683e-08
-1.02336e-07
9.82732e-09
-9.95062e-08
6.32753e-09
-9.89559e-08
3.47258e-09
-1.00634e-07
8.32239e-10
-1.04598e-07
-1.77444e-09
-1.1064e-07
-5.67576e-09
-1.19235e-07
-1.10537e-08
-1.2741e-07
-2.51534e-08
-1.36066e-07
-4.43009e-08
-1.34721e-07
-1.11221e-07
-1.07696e-07
-1.90641e-07
-5.54933e-07
4.66784e-07
6.21742e-07
7.39495e-07
8.12666e-07
8.58339e-07
8.88846e-07
9.09826e-07
9.24294e-07
9.34121e-07
9.40449e-07
9.43921e-07
9.44754e-07
9.42979e-07
9.37303e-07
9.2625e-07
9.01096e-07
8.56795e-07
7.45575e-07
5.54933e-07
)
;

boundaryField
{
    movingWall
    {
        type            calculated;
        value           uniform 0;
    }
    fixedWalls
    {
        type            calculated;
        value           uniform 0;
    }
    frontAndBack
    {
        type            empty;
        value           nonuniform 0();
    }
}


// ************************************************************************* //
