/*--------------------------------*- C++ -*----------------------------------*\
| =========                 |                                                 |
| \\      /  F ield         | OpenFOAM: The Open Source CFD Toolbox           |
|  \\    /   O peration     | Version:  5.x                                   |
|   \\  /    A nd           | Web:      www.OpenFOAM.org                      |
|    \\/     M anipulation  |                                                 |
\*---------------------------------------------------------------------------*/
FoamFile
{
    version     2.0;
    format      ascii;
    class       volScalarField;
    location    "19.8";
    object      p;
}
// * * * * * * * * * * * * * * * * * * * * * * * * * * * * * * * * * * * * * //

dimensions      [0 2 -2 0 0 0 0];

internalField   nonuniform List<scalar> 
400
(
-3.01615e-10
-0.000801591
-0.00138545
-0.00176844
-0.00197271
-0.00209319
-0.00214596
-0.00216192
-0.00215365
-0.00215443
-0.00214871
-0.00213363
-0.00209891
-0.00206276
-0.00200631
-0.00190858
-0.00171699
-0.00138462
-0.00097111
0.000392965
-0.00088637
-0.0014046
-0.00175902
-0.00194616
-0.00206109
-0.0021129
-0.00214729
-0.00215209
-0.00215751
-0.00216286
-0.00217194
-0.00217223
-0.00215861
-0.0021435
-0.00211863
-0.00207379
-0.00199424
-0.00176838
-0.00164844
-0.000684752
-0.00141359
-0.00178455
-0.00194732
-0.00205757
-0.0021112
-0.00215039
-0.0021706
-0.00217393
-0.00216371
-0.00215712
-0.00215216
-0.00214698
-0.00212716
-0.00208286
-0.00207203
-0.00196056
-0.00200949
-0.00186067
-0.00180349
-0.00138414
-0.00175975
-0.00199006
-0.00205214
-0.0021104
-0.00213662
-0.00215188
-0.0021583
-0.00215947
-0.00215305
-0.00215674
-0.00216756
-0.00217714
-0.00217173
-0.00214488
-0.00213575
-0.00213006
-0.00213416
-0.00193764
-0.00198654
-0.00176529
-0.00194228
-0.00207764
-0.00209761
-0.00213011
-0.00214582
-0.00215184
-0.0021655
-0.00216363
-0.0021661
-0.00216069
-0.0021624
-0.00214692
-0.00215994
-0.00211835
-0.00212028
-0.00213683
-0.00208596
-0.0019734
-0.00200718
-0.0019139
-0.00203872
-0.00211233
-0.00211457
-0.00213153
-0.00213999
-0.00214684
-0.00215176
-0.00215705
-0.00215631
-0.00215416
-0.00216973
-0.00216418
-0.00216245
-0.00212558
-0.00214361
-0.00214212
-0.00210761
-0.00200099
-0.00208713
-0.00201409
-0.00207993
-0.00211461
-0.00212117
-0.0021302
-0.00213957
-0.00214516
-0.00215587
-0.00215797
-0.00217038
-0.00216865
-0.00218847
-0.00216789
-0.00218963
-0.00213875
-0.00217054
-0.00213853
-0.00219414
-0.00210767
-0.00208398
-0.00210638
-0.00209889
-0.00211568
-0.00212901
-0.00213199
-0.00213691
-0.00214104
-0.00214305
-0.00215254
-0.00216248
-0.00217943
-0.00217755
-0.0021576
-0.00215088
-0.00214065
-0.00223646
-0.0021466
-0.00222872
-0.00218414
-0.00219922
-0.00212167
-0.00211658
-0.00212689
-0.00212282
-0.00213485
-0.00214018
-0.00214429
-0.00215024
-0.00215883
-0.00217099
-0.0021899
-0.00219419
-0.00219415
-0.00219144
-0.00218927
-0.00223269
-0.00215067
-0.00216412
-0.0021418
-0.0021627
-0.00208863
-0.00212331
-0.0021172
-0.00212638
-0.00214333
-0.00214166
-0.0021456
-0.00214113
-0.00215975
-0.00215762
-0.00216195
-0.00215351
-0.00216134
-0.002165
-0.0021314
-0.002216
-0.00218877
-0.0021389
-0.00213371
-0.00215564
-0.00213402
-0.00214053
-0.00217315
-0.00214838
-0.00217366
-0.00216116
-0.00215536
-0.00215317
-0.00215861
-0.00216519
-0.00217891
-0.00219233
-0.00220658
-0.00221703
-0.00225464
-0.00225646
-0.00221144
-0.00221777
-0.00219018
-0.00221122
-0.00217517
-0.00215726
-0.00215228
-0.00214527
-0.00217236
-0.00216349
-0.00214268
-0.00215682
-0.00214864
-0.00213467
-0.00214494
-0.00217955
-0.00219417
-0.00220668
-0.0022499
-0.00226309
-0.00221403
-0.00225618
-0.00218443
-0.00228609
-0.00211882
-0.00216166
-0.00220521
-0.00216482
-0.00221036
-0.00217297
-0.00217986
-0.00218983
-0.00212739
-0.00213075
-0.00216261
-0.00218156
-0.00222116
-0.00225472
-0.00222143
-0.00226844
-0.00219876
-0.00222947
-0.00213949
-0.00218731
-0.00207812
-0.00216525
-0.00221456
-0.00218914
-0.00222876
-0.00218746
-0.00224105
-0.00222623
-0.00214781
-0.00211433
-0.00212503
-0.00217731
-0.00220208
-0.00217028
-0.00225284
-0.00234514
-0.0022409
-0.00219152
-0.00214036
-0.00214951
-0.00218001
-0.00212643
-0.00221208
-0.0021943
-0.00228169
-0.00222437
-0.00228699
-0.0022537
-0.00223288
-0.00218277
-0.00223022
-0.00219476
-0.00223995
-0.00221817
-0.00230617
-0.00242603
-0.00228369
-0.00224697
-0.00214115
-0.00233007
-0.00212947
-0.00205787
-0.00216568
-0.00225341
-0.00222024
-0.00224308
-0.00225761
-0.00223619
-0.00217305
-0.00220962
-0.00219904
-0.00221673
-0.00226322
-0.00218806
-0.00219834
-0.00209525
-0.00209544
-0.00221422
-0.00208816
-0.00207752
-0.00194386
-0.00184621
-0.00203606
-0.00214571
-0.00228591
-0.00225464
-0.00225327
-0.0022572
-0.00217859
-0.00222754
-0.0022648
-0.00227643
-0.00223721
-0.00221238
-0.00217978
-0.00224354
-0.00218325
-0.00212722
-0.00216178
-0.00207369
-0.00175003
-0.00151016
-0.00179328
-0.0020956
-0.00217069
-0.00225518
-0.00224542
-0.00220436
-0.00222453
-0.00234442
-0.00246464
-0.00245987
-0.00217258
-0.00213481
-0.00219705
-0.00218205
-0.00217966
-0.00190752
-0.00191942
-0.00165139
-0.00143752
-0.000987252
-0.00140078
-0.00177394
-0.00200933
-0.00206016
-0.00199947
-0.00187048
-0.00204873
-0.00253987
-0.00265657
-0.00261086
-0.00210859
-0.00212074
-0.00202995
-0.00201076
-0.00220636
-0.00205537
-0.00211076
-0.00199633
-0.000843742
-0.000405603
-0.00094891
-0.00146364
-0.00185169
-0.00206442
-0.00216833
-0.00214883
-0.00216329
-0.00222073
-0.00215658
-0.0020232
-0.00200372
-0.00211971
-0.00205447
-0.00208724
-0.00203322
-0.00195826
-0.00157082
-0.000630188
0.00151832
)
;

boundaryField
{
    movingWall
    {
        type            zeroGradient;
    }
    fixedWalls
    {
        type            zeroGradient;
    }
    frontAndBack
    {
        type            empty;
    }
}


// ************************************************************************* //
