/*--------------------------------*- C++ -*----------------------------------*\
| =========                 |                                                 |
| \\      /  F ield         | OpenFOAM: The Open Source CFD Toolbox           |
|  \\    /   O peration     | Version:  5.x                                   |
|   \\  /    A nd           | Web:      www.OpenFOAM.org                      |
|    \\/     M anipulation  |                                                 |
\*---------------------------------------------------------------------------*/
FoamFile
{
    version     2.0;
    format      ascii;
    class       volScalarField;
    location    "5.1";
    object      p;
}
// * * * * * * * * * * * * * * * * * * * * * * * * * * * * * * * * * * * * * //

dimensions      [0 2 -2 0 0 0 0];

internalField   nonuniform List<scalar> 
400
(
-1.98361e-10
8.74716e-07
2.7841e-06
5.8446e-06
1.03426e-05
1.67089e-05
2.56445e-05
3.82668e-05
5.63657e-05
8.2722e-05
0.000121039
0.000172586
0.000218466
0.000167316
-0.000137654
-0.000548206
-0.000638594
-0.000172342
0.000606928
0.00148535
-1.21353e-06
-4.36647e-07
1.25422e-06
3.93944e-06
7.82274e-06
1.3174e-05
2.0345e-05
2.97247e-05
4.15717e-05
5.54256e-05
6.8511e-05
7.17132e-05
3.7558e-05
-0.000109675
-0.000451881
-0.000841481
-0.00103436
-0.000811314
-0.00016336
0.000556236
-3.69072e-06
-3.09768e-06
-1.81112e-06
1.92111e-07
2.98933e-06
6.63671e-06
1.11256e-05
1.62413e-05
2.12593e-05
2.43072e-05
2.10176e-05
1.64368e-06
-5.47127e-05
-0.000182304
-0.00042079
-0.000718518
-0.000998262
-0.00100887
-0.000659519
-9.24308e-05
-7.15218e-06
-6.79662e-06
-6.02327e-06
-4.86398e-06
-3.35859e-06
-1.63322e-06
2.34412e-08
1.00066e-06
8.27397e-08
-5.06464e-06
-1.87305e-05
-4.83597e-05
-0.000108247
-0.000211042
-0.000384909
-0.000597711
-0.000812735
-0.00082453
-0.00065056
-0.000342868
-1.13005e-05
-1.12052e-05
-1.09775e-05
-1.0694e-05
-1.04709e-05
-1.05465e-05
-1.13519e-05
-1.3646e-05
-1.8709e-05
-2.86769e-05
-4.71288e-05
-7.78973e-05
-0.000133684
-0.000209009
-0.000328098
-0.000456056
-0.000579299
-0.000625618
-0.000604263
-0.000451252
-1.57963e-05
-1.59611e-05
-1.62574e-05
-1.67832e-05
-1.76821e-05
-1.92278e-05
-2.18771e-05
-2.63611e-05
-3.37952e-05
-4.56449e-05
-6.55014e-05
-9.06939e-05
-0.000139673
-0.000191432
-0.000270928
-0.000342723
-0.000421885
-0.00043956
-0.000472923
-0.000369062
-2.03117e-05
-2.07371e-05
-2.15131e-05
-2.27475e-05
-2.4547e-05
-2.71784e-05
-3.10343e-05
-3.67209e-05
-4.52573e-05
-5.64111e-05
-7.69583e-05
-9.48021e-05
-0.000136043
-0.000168971
-0.000222561
-0.000255292
-0.000296689
-0.000271831
-0.000226275
-0.000210185
-2.45359e-05
-2.52304e-05
-2.6439e-05
-2.82627e-05
-3.07441e-05
-3.40894e-05
-3.86374e-05
-4.46229e-05
-5.38377e-05
-6.20824e-05
-8.31372e-05
-9.5029e-05
-0.000126466
-0.000145178
-0.000184821
-0.000192932
-0.000226315
-0.000201264
-0.000228283
-0.000194736
-2.818e-05
-2.92531e-05
-3.08982e-05
-3.33881e-05
-3.63529e-05
-4.01879e-05
-4.50627e-05
-5.02307e-05
-6.04578e-05
-6.49648e-05
-8.4706e-05
-9.23251e-05
-0.00011781
-0.000124411
-0.000156947
-0.00014828
-0.000181926
-0.000138277
-0.000189461
-0.000135004
-3.09934e-05
-3.2542e-05
-3.47004e-05
-3.75576e-05
-4.08877e-05
-4.46218e-05
-5.00566e-05
-5.35964e-05
-6.47018e-05
-6.56355e-05
-8.44772e-05
-8.6402e-05
-0.000109003
-0.000104114
-0.000135255
-0.000108177
-0.00014418
-7.65232e-05
-0.000103026
-5.05093e-05
-3.24267e-05
-3.48789e-05
-3.80705e-05
-4.20283e-05
-4.58694e-05
-5.01314e-05
-5.53779e-05
-5.80043e-05
-6.81794e-05
-6.81837e-05
-8.31764e-05
-8.16814e-05
-0.000102276
-9.16284e-05
-0.000120199
-8.79735e-05
-0.000122488
-4.65843e-05
-8.27225e-05
-2.51715e-05
-3.30177e-05
-3.8172e-05
-4.10316e-05
-4.51148e-05
-4.88022e-05
-5.19992e-05
-5.71343e-05
-5.93077e-05
-6.74961e-05
-6.73591e-05
-8.00779e-05
-7.42375e-05
-9.48289e-05
-7.46745e-05
-0.000108059
-6.14456e-05
-0.000112865
-2.78016e-05
-0.000111015
-2.07213e-05
-2.79408e-05
-3.47847e-05
-4.27956e-05
-4.99541e-05
-5.48617e-05
-5.97534e-05
-6.37326e-05
-6.56188e-05
-7.19075e-05
-7.07826e-05
-8.13906e-05
-7.38358e-05
-9.23826e-05
-7.39129e-05
-0.000102788
-6.60777e-05
-0.000109421
-3.36763e-05
-0.000133479
-1.811e-05
-2.81182e-05
-4.76006e-05
-4.87299e-05
-5.53016e-05
-5.73764e-05
-5.90912e-05
-6.27037e-05
-6.33244e-05
-6.89169e-05
-6.65476e-05
-7.61422e-05
-6.56954e-05
-8.30722e-05
-5.87401e-05
-8.75917e-05
-4.31964e-05
-9.15397e-05
-1.4578e-05
-9.20014e-05
-1.27364e-05
-9.1067e-06
-3.47014e-05
-4.90758e-05
-6.38722e-05
-6.76099e-05
-7.373e-05
-7.32456e-05
-7.45112e-05
-7.65121e-05
-7.44543e-05
-8.03232e-05
-7.20212e-05
-8.44711e-05
-6.83671e-05
-9.18714e-05
-6.41124e-05
-0.000100811
-4.93723e-05
-0.000119704
-3.88741e-05
-7.13556e-05
-0.000107541
-5.87843e-05
-8.48638e-05
-7.29737e-05
-6.5938e-05
-6.64918e-05
-6.65831e-05
-6.94458e-05
-6.75427e-05
-7.2361e-05
-6.29752e-05
-7.37512e-05
-5.53885e-05
-6.99705e-05
-4.09694e-05
-5.32164e-05
-5.31588e-05
-8.07424e-05
-3.81562e-05
-8.87637e-06
-0.000134444
-0.000110496
-0.000102915
-8.26081e-05
-8.73078e-05
-7.59191e-05
-8.11999e-05
-8.03137e-05
-8.10931e-05
-7.94872e-05
-7.68223e-05
-7.26728e-05
-7.80291e-05
-7.04925e-05
-7.25006e-05
-0.000143436
-6.05516e-05
-0.000155593
2.04805e-05
-5.62214e-05
-0.000212877
-9.97846e-05
-7.38707e-05
-8.12675e-05
-7.36876e-05
-7.74964e-05
-7.72159e-05
-7.68607e-05
-7.47428e-05
-7.1413e-05
-6.31647e-05
-6.51136e-05
-5.19669e-05
-8.05691e-05
-0.000100193
-1.93169e-05
1.27927e-05
7.72042e-05
0.000203103
3.68976e-05
-7.87556e-05
-7.35658e-05
-7.66937e-05
-7.35976e-05
-6.94897e-05
-7.36177e-05
-7.42907e-05
-8.33366e-05
-8.92163e-05
-8.60623e-05
-8.49582e-05
-8.37139e-05
-6.10617e-05
-7.89595e-05
-0.000123543
-4.08108e-05
-6.06075e-05
-3.3248e-05
0.00048615
-0.000111366
-8.02311e-05
-2.95235e-05
-9.86513e-05
-5.43316e-05
-5.99922e-05
-5.34285e-05
-5.18606e-05
-5.28675e-05
-5.82681e-05
-6.36837e-05
-5.42418e-05
-5.28867e-05
-4.27363e-05
-2.98114e-05
-3.72873e-07
-3.35411e-05
0.000178586
0.00060166
0.00177896
)
;

boundaryField
{
    movingWall
    {
        type            zeroGradient;
    }
    fixedWalls
    {
        type            zeroGradient;
    }
    frontAndBack
    {
        type            empty;
    }
}


// ************************************************************************* //
