/*--------------------------------*- C++ -*----------------------------------*\
| =========                 |                                                 |
| \\      /  F ield         | OpenFOAM: The Open Source CFD Toolbox           |
|  \\    /   O peration     | Version:  5.x                                   |
|   \\  /    A nd           | Web:      www.OpenFOAM.org                      |
|    \\/     M anipulation  |                                                 |
\*---------------------------------------------------------------------------*/
FoamFile
{
    version     2.0;
    format      ascii;
    class       surfaceScalarField;
    location    "5.1";
    object      phi;
}
// * * * * * * * * * * * * * * * * * * * * * * * * * * * * * * * * * * * * * //

dimensions      [0 3 -1 0 0 0 0];

internalField   nonuniform List<scalar> 
760
(
-1.98818e-08
1.98818e-08
-4.16377e-08
2.1756e-08
-6.49422e-08
2.33044e-08
-9.07943e-08
2.58521e-08
-1.20466e-07
2.96716e-08
-1.55763e-07
3.52966e-08
-1.99447e-07
4.36842e-08
-2.56006e-07
5.65593e-08
-3.33248e-07
7.72417e-08
-4.45633e-07
1.12385e-07
-6.21258e-07
1.75625e-07
-9.14307e-07
2.93049e-07
-1.40583e-06
4.91522e-07
-2.10674e-06
7.00913e-07
-2.76368e-06
6.56938e-07
-3.06376e-06
3.00077e-07
-2.96581e-06
-9.79432e-08
-2.43245e-06
-5.33366e-07
-1.31048e-06
-1.12196e-06
-1.31048e-06
-2.08003e-08
4.06821e-08
-4.34842e-08
4.44399e-08
-6.76164e-08
4.74367e-08
-9.40885e-08
5.23242e-08
-1.23973e-07
5.95561e-08
-1.58652e-07
6.99753e-08
-1.99961e-07
8.49937e-08
-2.50374e-07
1.06973e-07
-3.13074e-07
1.39941e-07
-3.91489e-07
1.908e-07
-4.87074e-07
2.71211e-07
-5.93544e-07
3.99519e-07
-6.94877e-07
5.92854e-07
-8.12568e-07
8.18605e-07
-1.06714e-06
9.11511e-07
-1.47348e-06
7.06417e-07
-1.77898e-06
2.07551e-07
-1.66915e-06
-6.43189e-07
-1.13481e-06
-1.65631e-06
-2.44529e-06
-1.94547e-08
6.01367e-08
-4.06706e-08
6.56558e-08
-6.30634e-08
6.98295e-08
-8.72926e-08
7.65534e-08
-1.14066e-07
8.63294e-08
-1.44174e-07
1.00084e-07
-1.78475e-07
1.19294e-07
-2.17749e-07
1.46247e-07
-2.62215e-07
1.84407e-07
-3.10325e-07
2.3891e-07
-3.56038e-07
3.16923e-07
-3.83938e-07
4.27419e-07
-3.68578e-07
5.77494e-07
-2.99157e-07
7.49184e-07
-2.5723e-07
8.69584e-07
-3.03234e-07
7.52422e-07
-3.94406e-07
2.98722e-07
-4.74268e-07
-5.63327e-07
-3.85092e-07
-1.74548e-06
-2.83039e-06
-1.73976e-08
7.75344e-08
-3.64055e-08
8.46637e-08
-5.62693e-08
8.96933e-08
-7.73902e-08
9.76742e-08
-1.00096e-07
1.09035e-07
-1.24611e-07
1.24599e-07
-1.50931e-07
1.45614e-07
-1.78559e-07
1.73875e-07
-2.05973e-07
2.11821e-07
-2.29675e-07
2.62613e-07
-2.42555e-07
3.29803e-07
-2.30821e-07
4.15685e-07
-1.76624e-07
5.23296e-07
-5.42794e-08
6.26839e-07
1.00455e-07
7.14849e-07
2.21101e-07
6.31776e-07
2.05095e-07
3.14728e-07
2.46473e-08
-3.82879e-07
-8.74521e-08
-1.63338e-06
-2.91784e-06
-1.4884e-08
9.24184e-08
-3.12517e-08
1.01031e-07
-4.81955e-08
1.06637e-07
-6.58758e-08
1.15355e-07
-8.428e-08
1.27439e-07
-1.0318e-07
1.43499e-07
-1.21989e-07
1.64422e-07
-1.39526e-07
1.91413e-07
-1.53591e-07
2.25886e-07
-1.6033e-07
2.69352e-07
-1.54135e-07
3.23608e-07
-1.22334e-07
3.83884e-07
-6.14567e-08
4.62419e-07
5.21729e-08
5.1321e-07
1.92946e-07
5.74076e-07
3.27009e-07
4.97713e-07
3.40636e-07
3.01101e-07
2.23533e-07
-2.65776e-07
-2.55926e-08
-1.38426e-06
-2.94343e-06
-1.20516e-08
1.0447e-07
-2.55316e-08
1.14511e-07
-3.9417e-08
1.20522e-07
-5.36561e-08
1.29594e-07
-6.79924e-08
1.41776e-07
-8.18926e-08
1.57399e-07
-9.4478e-08
1.77008e-07
-1.04352e-07
2.01287e-07
-1.09414e-07
2.30947e-07
-1.0557e-07
2.65508e-07
-9.14955e-08
3.09534e-07
-5.18028e-08
3.44192e-07
4.27047e-09
4.06345e-07
9.62147e-08
4.21266e-07
2.04048e-07
4.66243e-07
3.23984e-07
3.77776e-07
3.82201e-07
2.42884e-07
3.31969e-07
-2.15544e-07
2.36489e-07
-1.28878e-06
-2.70694e-06
-8.9256e-09
1.13396e-07
-1.94184e-08
1.25004e-07
-3.02604e-08
1.31365e-07
-4.13596e-08
1.40693e-07
-5.21518e-08
1.52568e-07
-6.19727e-08
1.6722e-07
-6.97645e-08
1.848e-07
-7.4055e-08
2.05577e-07
-7.36403e-08
2.30533e-07
-6.21015e-08
2.53969e-07
-4.60345e-08
2.93467e-07
-9.17387e-09
3.07331e-07
3.92022e-08
3.57969e-07
1.13735e-07
3.46733e-07
1.89989e-07
3.89988e-07
2.75459e-07
2.92307e-07
3.01014e-07
2.17329e-07
2.38597e-07
-1.53126e-07
4.01433e-08
-1.09032e-06
-2.6668e-06
-5.57646e-09
1.18972e-07
-1.30853e-08
1.32513e-07
-2.1068e-08
1.39347e-07
-2.94163e-08
1.49041e-07
-3.73732e-08
1.60525e-07
-4.40957e-08
1.73943e-07
-4.86999e-08
1.89404e-07
-4.89128e-08
2.0579e-07
-4.66636e-08
2.28283e-07
-3.36138e-08
2.4092e-07
-1.68887e-08
2.76742e-07
1.34236e-08
2.77019e-07
5.21057e-08
3.19287e-07
1.07714e-07
2.91125e-07
1.60631e-07
3.37071e-07
2.20659e-07
2.32279e-07
2.30106e-07
2.07882e-07
1.99381e-07
-1.22402e-07
-1.61847e-09
-8.89323e-07
-2.66842e-06
-1.39483e-09
1.20367e-07
-5.80921e-09
1.36927e-07
-1.09743e-08
1.44512e-07
-1.77724e-08
1.55839e-07
-2.37093e-08
1.66462e-07
-2.87765e-08
1.7901e-07
-3.15944e-08
1.92222e-07
-2.93834e-08
2.03579e-07
-2.51176e-08
2.24018e-07
-1.24391e-08
2.28241e-07
6.26369e-09
2.58039e-07
3.30423e-08
2.5024e-07
6.45268e-08
2.87803e-07
1.09639e-07
2.46013e-07
1.46079e-07
3.0063e-07
1.93176e-07
1.85183e-07
2.02398e-07
1.9866e-07
1.94731e-07
-1.14734e-07
1.1253e-07
-8.07122e-07
-2.55589e-06
2.94384e-09
1.17423e-07
1.01256e-09
1.38859e-07
-2.70508e-09
1.4823e-07
-7.24598e-09
1.6038e-07
-1.18191e-08
1.71035e-07
-1.46438e-08
1.81835e-07
-1.66204e-08
1.94198e-07
-1.47895e-08
2.01748e-07
-9.84906e-09
2.19077e-07
-1.35079e-09
2.19743e-07
1.44152e-08
2.42273e-07
3.3444e-08
2.31211e-07
5.72199e-08
2.64027e-07
8.52029e-08
2.1803e-07
1.12537e-07
2.73296e-07
1.44227e-07
1.53493e-07
1.51231e-07
1.91656e-07
1.44373e-07
-1.07876e-07
6.80916e-08
-7.3084e-07
-2.4878e-06
1.28652e-08
1.04558e-07
1.56215e-08
1.36102e-07
1.44113e-08
1.4944e-07
7.02891e-09
1.67762e-07
4.52899e-10
1.77611e-07
-5.93529e-09
1.88223e-07
-8.02536e-09
1.96288e-07
-7.25263e-09
2.00975e-07
5.40302e-10
2.11284e-07
9.04416e-09
2.11239e-07
2.5091e-08
2.26226e-07
4.43333e-08
2.11969e-07
6.7261e-08
2.41099e-07
9.44161e-08
1.90875e-07
1.15219e-07
2.52494e-07
1.29679e-07
1.39033e-07
1.2359e-07
1.97744e-07
8.61597e-08
-7.04456e-08
-1.51044e-08
-6.29576e-07
-2.5029e-06
2.07734e-08
8.37844e-08
1.61696e-08
1.40706e-07
1.25128e-08
1.53097e-07
9.96162e-09
1.70314e-07
7.18801e-09
1.80384e-07
5.63628e-09
1.89775e-07
5.74505e-09
1.9618e-07
4.9268e-09
2.01794e-07
9.85896e-09
2.06352e-07
1.36817e-08
2.07416e-07
2.46004e-08
2.15308e-07
3.07525e-08
2.05817e-07
4.74184e-08
2.24433e-07
4.83923e-08
1.89901e-07
6.91854e-08
2.31701e-07
6.42476e-08
1.4397e-07
7.32817e-08
1.8871e-07
5.54586e-08
-5.26225e-08
-1.7692e-08
-5.56426e-07
-2.52059e-06
5.37819e-08
3.00025e-08
7.29572e-08
1.21531e-07
6.76121e-08
1.58442e-07
4.18453e-08
1.9608e-07
2.26308e-08
1.99599e-07
4.51031e-09
2.07895e-07
-1.75019e-09
2.0244e-07
-4.03304e-09
2.04077e-07
3.82046e-09
1.98499e-07
1.01668e-08
2.0107e-07
2.73698e-08
1.98105e-07
3.99056e-08
1.93281e-07
6.48025e-08
1.99536e-07
8.05081e-08
1.74195e-07
1.06424e-07
2.05785e-07
1.05096e-07
1.45298e-07
1.06655e-07
1.87151e-07
2.10337e-08
3.2999e-08
2.30076e-09
-5.37693e-07
-2.51829e-06
8.39459e-08
-5.39434e-08
3.02712e-08
1.75206e-07
1.69091e-08
1.71804e-07
2.50247e-08
1.87965e-07
2.47863e-08
1.99837e-07
2.57479e-08
2.06933e-07
2.34464e-08
2.04742e-07
2.023e-08
2.07293e-07
2.2348e-08
1.96381e-07
2.18961e-08
2.01522e-07
2.93777e-08
1.90623e-07
2.5322e-08
1.97337e-07
3.65239e-08
1.88334e-07
1.26149e-08
1.98104e-07
2.83503e-08
1.9005e-07
-2.73516e-08
2.01e-07
4.03519e-08
1.19448e-07
2.66873e-08
4.66636e-08
2.26633e-08
-5.33669e-07
-2.49563e-06
2.09626e-07
-2.6357e-07
1.89188e-07
1.95644e-07
1.34391e-07
2.26602e-07
3.10547e-08
2.91301e-07
-1.96132e-08
2.50505e-07
-4.39462e-08
2.31267e-07
-4.40142e-08
2.0481e-07
-3.73863e-08
2.00665e-07
-2.47165e-08
1.83711e-07
-1.49519e-08
1.91757e-07
7.05152e-09
1.68619e-07
1.30692e-08
1.91319e-07
4.79563e-08
1.53447e-07
4.40333e-08
2.02027e-07
1.11851e-07
1.22232e-07
1.07564e-07
2.05286e-07
1.09583e-07
1.17429e-07
-1.92095e-08
1.75456e-07
-4.23907e-08
-5.10488e-07
-2.53802e-06
2.83859e-07
-5.47428e-07
2.07669e-07
2.71834e-07
2.50679e-07
1.83592e-07
2.43657e-07
2.98323e-07
1.96245e-07
2.97917e-07
1.4481e-07
2.82701e-07
1.16277e-07
2.33343e-07
9.41769e-08
2.22765e-07
8.43157e-08
1.93572e-07
7.77294e-08
1.98344e-07
8.13719e-08
1.64977e-07
7.55039e-08
1.97187e-07
8.74813e-08
1.4147e-07
6.06621e-08
2.28847e-07
1.30858e-08
1.69808e-07
-6.16487e-08
2.80021e-07
6.16589e-08
-5.87835e-09
2.24345e-08
2.14681e-07
3.06259e-08
-5.18679e-07
-2.50739e-06
-4.46425e-08
-5.02786e-07
-3.6168e-07
5.88871e-07
-4.21489e-07
2.43401e-07
-3.76715e-07
2.53549e-07
-3.70529e-07
2.91731e-07
-3.12924e-07
2.25096e-07
-2.81239e-07
2.01658e-07
-2.47664e-07
1.8919e-07
-2.17555e-07
1.63462e-07
-1.89262e-07
1.70051e-07
-1.61071e-07
1.36787e-07
-1.35135e-07
1.71251e-07
-1.13519e-07
1.19854e-07
-1.26447e-07
2.41775e-07
-2.42771e-08
6.76384e-08
-1.09314e-07
3.65057e-07
1.08587e-07
-2.23779e-07
1.6426e-07
1.59008e-07
4.63639e-08
-4.00783e-07
-2.46103e-06
-3.07856e-08
-4.72e-07
3.97383e-07
1.60702e-07
3.2993e-07
3.10855e-07
4.01548e-07
1.81931e-07
4.69076e-07
2.24203e-07
5.23729e-07
1.70443e-07
5.78723e-07
1.46664e-07
5.87487e-07
1.80426e-07
6.09851e-07
1.41099e-07
5.77353e-07
2.02548e-07
5.72668e-07
1.41472e-07
5.3442e-07
2.09498e-07
5.21209e-07
1.33064e-07
4.92731e-07
2.70253e-07
5.70427e-07
-1.00577e-08
4.41518e-07
4.93966e-07
2.83673e-07
-6.59338e-08
1.85537e-07
2.57144e-07
2.61092e-07
-4.76338e-07
-2.19994e-06
-8.26833e-07
3.54832e-07
-9.41182e-07
2.75051e-07
-8.84163e-07
2.53836e-07
-8.70371e-07
1.68139e-07
-8.31129e-07
1.84961e-07
-7.9855e-07
1.37864e-07
-7.73429e-07
1.21542e-07
-7.32979e-07
1.39977e-07
-7.09299e-07
1.17418e-07
-6.42916e-07
1.36165e-07
-5.96153e-07
9.47095e-08
-4.98567e-07
1.11912e-07
-4.42226e-07
7.67232e-08
-2.78516e-07
1.06543e-07
-3.39646e-07
5.10726e-08
-2.36593e-08
1.77979e-07
-2.96233e-08
-5.99698e-08
2.37483e-07
-9.96293e-09
6.64329e-07
-9.03183e-07
-1.53561e-06
3.54832e-07
6.29883e-07
8.83719e-07
1.05186e-06
1.23682e-06
1.37468e-06
1.49623e-06
1.6362e-06
1.75362e-06
1.88979e-06
1.98449e-06
2.09641e-06
2.17313e-06
2.27967e-06
2.33075e-06
2.50873e-06
2.44876e-06
2.43879e-06
1.53561e-06
)
;

boundaryField
{
    movingWall
    {
        type            calculated;
        value           uniform 0;
    }
    fixedWalls
    {
        type            calculated;
        value           uniform 0;
    }
    frontAndBack
    {
        type            empty;
        value           nonuniform 0();
    }
}


// ************************************************************************* //
