/*--------------------------------*- C++ -*----------------------------------*\
| =========                 |                                                 |
| \\      /  F ield         | OpenFOAM: The Open Source CFD Toolbox           |
|  \\    /   O peration     | Version:  5.x                                   |
|   \\  /    A nd           | Web:      www.OpenFOAM.org                      |
|    \\/     M anipulation  |                                                 |
\*---------------------------------------------------------------------------*/
FoamFile
{
    version     2.0;
    format      ascii;
    class       volVectorField;
    location    "5.1";
    object      U;
}
// * * * * * * * * * * * * * * * * * * * * * * * * * * * * * * * * * * * * * //

dimensions      [0 1 -1 0 0 0 0];

internalField   nonuniform List<vector> 
400
(
(-0.000193188 0.000195885 0)
(-0.000608543 0.000214539 0)
(-0.00106087 0.000230169 0)
(-0.00154815 0.000255861 0)
(-0.00209933 0.000294339 0)
(-0.00274231 0.000350846 0)
(-0.0035213 0.000435223 0)
(-0.00450455 0.000566949 0)
(-0.00580524 0.00078588 0)
(-0.00762169 0.00117807 0)
(-0.0103162 0.00194165 0)
(-0.0145275 0.00350114 0)
(-0.0213792 0.00621809 0)
(-0.0330489 0.00799472 0)
(-0.0506863 0.00329379 0)
(-0.0637254 -0.0055812 0)
(-0.0633664 -0.00984375 0)
(-0.0555982 -0.0127272 0)
(-0.0402289 -0.0176696 0)
(-0.0069903 -0.0157813 0)
(-0.000202159 0.000604566 0)
(-0.00063609 0.000660943 0)
(-0.00110627 0.000706902 0)
(-0.00160822 0.000782225 0)
(-0.00216819 0.000894376 0)
(-0.00280818 0.0010575 0)
(-0.00355978 0.00129642 0)
(-0.00446399 0.00165561 0)
(-0.00557385 0.00221704 0)
(-0.00694825 0.00313583 0)
(-0.00862933 0.00470867 0)
(-0.0105696 0.00746259 0)
(-0.0124743 0.0119959 0)
(-0.0141953 0.0176303 0)
(-0.0183103 0.0200466 0)
(-0.0263857 0.0153879 0)
(-0.0354905 0.00471047 0)
(-0.0368742 -0.0119759 0)
(-0.0266687 -0.0320701 0)
(-0.0143903 -0.0423034 0)
(-0.000188792 0.00101178 0)
(-0.000594829 0.00110474 0)
(-0.00103318 0.00117705 0)
(-0.00149592 0.00129436 0)
(-0.00200316 0.00146659 0)
(-0.00256773 0.0017121 0)
(-0.00320587 0.00206094 0)
(-0.00393266 0.00256139 0)
(-0.00475718 0.00329084 0)
(-0.00566791 0.00437197 0)
(-0.00659866 0.00599158 0)
(-0.00735814 0.00841472 0)
(-0.00754629 0.0119092 0)
(-0.00660575 0.0161095 0)
(-0.00528064 0.0185988 0)
(-0.00543402 0.0153521 0)
(-0.00796686 0.0048239 0)
(-0.00882566 -0.0127858 0)
(-0.00904976 -0.0364999 0)
(-0.00386234 -0.058143 0)
(-0.000168369 0.00138083 0)
(-0.000532006 0.0015075 0)
(-0.000923257 0.00160018 0)
(-0.00133029 0.00174853 0)
(-0.0017665 0.0019621 0)
(-0.00223553 0.00225889 0)
(-0.00273979 0.00266687 0)
(-0.00327434 0.00322788 0)
(-0.00382048 0.00400221 0)
(-0.00433243 0.0050735 0)
(-0.00471272 0.00654803 0)
(-0.00476609 0.00853168 0)
(-0.00421628 0.0111178 0)
(-0.00249124 0.0139081 0)
(0.000236187 0.0161233 0)
(0.00364389 0.0146265 0)
(0.0042913 0.007445 0)
(0.00372024 -0.00785574 0)
(-0.00263823 -0.0300526 0)
(-2.5636e-05 -0.051311 0)
(-0.000143316 0.00170461 0)
(-0.00045571 0.00186202 0)
(-0.000791575 0.00196885 0)
(-0.0011355 0.00213683 0)
(-0.00149493 0.00237315 0)
(-0.0018661 0.00269229 0)
(-0.00224152 0.00311606 0)
(-0.00260435 0.00367458 0)
(-0.00292254 0.00440658 0)
(-0.00313983 0.00535732 0)
(-0.00317 0.00658014 0)
(-0.00281607 0.00804661 0)
(-0.00204742 0.00989241 0)
(-0.00019402 0.0114261 0)
(0.00214525 0.0128898 0)
(0.00557264 0.0113874 0)
(0.00683402 0.00610948 0)
(0.00647884 -0.00680143 0)
(0.00229412 -0.0332845 0)
(-0.00289204 -0.0632855 0)
(-0.000114911 0.00197474 0)
(-0.000370435 0.00216134 0)
(-0.000647106 0.00227776 0)
(-0.000926527 0.0024568 0)
(-0.00121174 0.00270078 0)
(-0.00149369 0.00302003 0)
(-0.00175904 0.00342837 0)
(-0.00198604 0.00394524 0)
(-0.00214087 0.00459215 0)
(-0.00216259 0.00537941 0)
(-0.00203204 0.00636916 0)
(-0.00144854 0.00733855 0)
(-0.000796661 0.00873441 0)
(0.000997581 0.00939869 0)
(0.00260689 0.0104282 0)
(0.00578417 0.00877845 0)
(0.00656907 0.00553294 0)
(0.009321 -0.00421237 0)
(0.00293037 -0.0241373 0)
(0.00760184 -0.0545689 0)
(-8.29726e-05 0.00218562 0)
(-0.000277795 0.00240036 0)
(-0.000494802 0.0025239 0)
(-0.000712949 0.00270641 0)
(-0.000932356 0.00294822 0)
(-0.00113946 0.00325166 0)
(-0.00131773 0.00362637 0)
(-0.00144273 0.00407897 0)
(-0.00149269 0.00462837 0)
(-0.0013674 0.00521142 0)
(-0.00122857 0.00603853 0)
(-0.000452634 0.00652028 0)
(-2.92354e-06 0.00761283 0)
(0.00171001 0.0075968 0)
(0.00255195 0.00841457 0)
(0.00536781 0.00648902 0)
(0.0050199 0.00442822 0)
(0.00754986 -0.00383079 0)
(0.00200519 -0.0244408 0)
(-0.0002971 -0.0506796 0)
(-4.80926e-05 0.00233092 0)
(-0.000179486 0.00258432 0)
(-0.000339965 0.00271611 0)
(-0.000502521 0.00291427 0)
(-0.000666558 0.0031463 0)
(-0.000815811 0.00343232 0)
(-0.000931994 0.00376019 0)
(-0.000983988 0.00413493 0)
(-0.00100978 0.0046083 0)
(-0.000745218 0.00497949 0)
(-0.000726359 0.00573201 0)
(0.000157997 0.00589123 0)
(0.000297664 0.00683733 0)
(0.00196588 0.00645339 0)
(0.00201811 0.0073593 0)
(0.00481975 0.00535456 0)
(0.00340051 0.00427412 0)
(0.0064906 -0.00268267 0)
(0.000943127 -0.0200759 0)
(-0.000914565 -0.0560166 0)
(1.75835e-06 0.00240792 0)
(-6.15715e-05 0.00269547 0)
(-0.000164771 0.00283791 0)
(-0.000283549 0.00301632 0)
(-0.000416239 0.00324514 0)
(-0.000527539 0.00348721 0)
(-0.00061836 0.00378999 0)
(-0.000596853 0.00406644 0)
(-0.0006561 0.00450531 0)
(-0.000243362 0.00466919 0)
(-0.000341633 0.0053205 0)
(0.000647409 0.00520978 0)
(0.000524156 0.00598334 0)
(0.00229222 0.00517069 0)
(0.00171772 0.00615736 0)
(0.00461088 0.00373476 0)
(0.00244853 0.00377733 0)
(0.0064746 -0.00246294 0)
(0.000434525 -0.0167096 0)
(0.00463501 -0.0518426 0)
(5.18716e-05 0.00237827 0)
(5.89439e-05 0.00277261 0)
(-1.76218e-05 0.00295393 0)
(-9.52559e-05 0.00327306 0)
(-0.00019093 0.00347144 0)
(-0.000267305 0.00375626 0)
(-0.000347859 0.00396885 0)
(-0.000261328 0.00416845 0)
(-0.000403881 0.0045152 0)
(8.72889e-05 0.00455966 0)
(-0.000175651 0.00508935 0)
(0.000851414 0.00491292 0)
(0.000311481 0.00564539 0)
(0.00224262 0.00485572 0)
(0.000769457 0.00595907 0)
(0.00425124 0.00389874 0)
(0.000825991 0.00413849 0)
(0.00600515 -0.00189397 0)
(-0.000963881 -0.014998 0)
(0.00414078 -0.0498397 0)
(0.000190158 0.002314 0)
(0.000304214 0.00281783 0)
(0.000328956 0.00295057 0)
(0.000232169 0.00306742 0)
(5.68669e-05 0.00328483 0)
(-3.86429e-05 0.00339151 0)
(-0.000219294 0.00368907 0)
(-6.01859e-05 0.00377787 0)
(-0.00028332 0.00413751 0)
(0.000317508 0.00412139 0)
(-2.83553e-05 0.00452881 0)
(0.00116787 0.00421653 0)
(0.000390966 0.00482541 0)
(0.00260498 0.00364937 0)
(0.000738793 0.00488066 0)
(0.00441112 0.00195937 0)
(9.53822e-05 0.00345348 0)
(0.00559736 -0.00252931 0)
(-0.00275797 -0.0137803 0)
(0.00234532 -0.0493998 0)
(0.000339587 0.00177628 0)
(0.000437625 0.00249354 0)
(0.000241656 0.00304435 0)
(0.00023986 0.00374696 0)
(0.000154279 0.0039502 0)
(0.000150374 0.00432447 0)
(5.35686e-05 0.00432903 0)
(0.000206146 0.00444752 0)
(-4.42512e-05 0.00449641 0)
(0.000501319 0.00449239 0)
(-4.44011e-05 0.00468239 0)
(0.00117496 0.00445855 0)
(-0.000146446 0.00497474 0)
(0.00234095 0.00426396 0)
(-0.000764782 0.00535306 0)
(0.00402905 0.00393142 0)
(-0.00201112 0.00447058 0)
(0.00561341 -0.000146521 0)
(-0.00401361 -0.0113786 0)
(0.00362292 -0.0505614 0)
(0.00073086 0.00170521 0)
(0.00134531 0.00337964 0)
(0.00153619 0.0031871 0)
(0.00112669 0.00298379 0)
(0.000585923 0.00311242 0)
(0.000300987 0.00303692 0)
(-0.000128766 0.00330723 0)
(7.51467e-05 0.00338847 0)
(-0.000268422 0.00354243 0)
(0.00045812 0.00358941 0)
(-0.000128099 0.00371859 0)
(0.00137759 0.00353736 0)
(-5.45338e-06 0.00378205 0)
(0.00292797 0.00299465 0)
(-0.000134516 0.00365285 0)
(0.00494796 0.00141289 0)
(-0.00139188 0.00280689 0)
(0.00645221 -0.00219143 0)
(-0.0060198 -0.0118284 0)
(0.00627704 -0.0505721 0)
(0.00187629 -0.000628659 0)
(0.0012371 0.00116695 0)
(9.11105e-05 0.00298331 0)
(0.000529228 0.00497562 0)
(0.000513039 0.00508152 0)
(0.000509772 0.00558688 0)
(0.000472571 0.00506348 0)
(0.00052418 0.0050715 0)
(0.000214484 0.00465839 0)
(0.000772405 0.00472934 0)
(-1.39828e-05 0.00445324 0)
(0.0013562 0.00448034 0)
(-0.000531025 0.0044577 0)
(0.00225592 0.00434025 0)
(-0.00193122 0.0049126 0)
(0.00337455 0.00485265 0)
(-0.00480927 0.00505148 0)
(0.00690275 0.00373742 0)
(-0.00624831 -0.00854433 0)
(0.00748804 -0.0497113 0)
(0.00385435 -0.00120985 0)
(0.0041501 0.00645674 0)
(0.00362508 0.00411187 0)
(0.0015777 0.0026726 0)
(-0.00024437 0.00268964 0)
(-0.000596281 0.00230301 0)
(-0.00108022 0.00278753 0)
(-0.000707286 0.00285747 0)
(-0.000846705 0.00288724 0)
(-6.50634e-05 0.00300773 0)
(-0.000613893 0.00288749 0)
(0.000966863 0.00307621 0)
(-0.000559218 0.00278443 0)
(0.0027352 0.00315333 0)
(-0.00126023 0.00227974 0)
(0.00624615 0.00259934 0)
(-0.00251911 -0.000720025 0)
(0.00758446 -0.00214726 0)
(-0.0086744 -0.0139179 0)
(0.00741758 -0.0514417 0)
(0.00534978 -0.0103434 0)
(0.00518292 0.000668766 0)
(0.00392404 0.00530783 0)
(0.00537463 0.00890474 0)
(0.00479918 0.00756008 0)
(0.00316068 0.0074285 0)
(0.00249603 0.00577268 0)
(0.00221931 0.00557396 0)
(0.00143846 0.0048046 0)
(0.0020671 0.0050241 0)
(0.000865872 0.00415874 0)
(0.00262327 0.00495363 0)
(0.000124255 0.00361632 0)
(0.00370522 0.00540997 0)
(-0.00158375 0.00295557 0)
(0.00225758 0.00624503 0)
(-0.00498122 0.0060936 0)
(0.00767181 0.00951577 0)
(-0.00698257 -0.00514796 0)
(0.00846701 -0.0508995 0)
(-0.00132694 -0.00999403 0)
(-0.000937279 0.0109181 0)
(-0.0124456 0.00143421 0)
(-0.00498122 0.00250964 0)
(-0.00954915 0.00403214 0)
(-0.00579661 0.0032874 0)
(-0.00628923 0.00322022 0)
(-0.0053021 0.00291029 0)
(-0.00442498 0.00258278 0)
(-0.00436279 0.00251612 0)
(-0.00323821 0.00212582 0)
(-0.00315274 0.00249278 0)
(-0.00215422 0.00181743 0)
(-0.00258059 0.00312645 0)
(-0.00230246 0.00362538 0)
(0.00149439 0.00437797 0)
(-0.00655611 -0.00653033 0)
(0.0117484 -0.00153189 0)
(-0.00638675 -0.0176965 0)
(0.00888192 -0.0514644 0)
(-0.0128006 -0.0117035 0)
(0.0110566 0.0108771 0)
(0.00652131 0.00864185 0)
(0.00604844 0.00825408 0)
(0.00942087 0.00783111 0)
(0.00979563 0.00614683 0)
(0.0108478 0.00497797 0)
(0.0122098 0.00494124 0)
(0.0114271 0.00425198 0)
(0.0128136 0.00465675 0)
(0.0103654 0.00366449 0)
(0.0128758 0.00481709 0)
(0.00800155 0.00326203 0)
(0.0136028 0.00717915 0)
(0.00538438 -0.00108695 0)
(0.0164788 0.0104746 0)
(0.00230605 -0.00116167 0)
(0.00835065 0.00874169 0)
(-0.00118856 0.00394973 0)
(0.012618 -0.0466476 0)
(-0.0215547 -0.00527439 0)
(-0.0135136 -0.00339397 0)
(-0.0225306 0.00390267 0)
(-0.0133915 -0.000922367 0)
(-0.021488 0.00115535 0)
(-0.011304 0.000511986 0)
(-0.0210374 0.000722924 0)
(-0.0100623 0.00198193 0)
(-0.0192634 0.00101686 0)
(-0.00929356 0.00292753 0)
(-0.0159753 0.00158855 0)
(-0.00820371 0.00296108 0)
(-0.0121169 0.00161143 0)
(-0.00486538 0.00304005 0)
(-0.0063219 0.000604491 0)
(-0.0082702 0.00809128 0)
(0.00765414 -0.00195388 0)
(-0.00913189 1.18507e-05 0)
(0.017168 -0.0262241 0)
(0.0130733 -0.0476412 0)
(0.000228379 0.0178048 0)
(0.0138238 0.0135377 0)
(0.0127264 0.00681506 0)
(0.0205802 0.00726228 0)
(0.0233333 0.00656612 0)
(0.0250104 0.00519642 0)
(0.0301636 0.00443365 0)
(0.0296113 0.00396936 0)
(0.035676 0.00408166 0)
(0.0345322 0.00297038 0)
(0.0409125 0.00253101 0)
(0.0387316 0.00194576 0)
(0.0442968 0.00180897 0)
(0.0431738 0.00153988 0)
(0.0477314 0.00175254 0)
(0.0473793 6.87342e-06 0)
(0.0490081 -0.000230286 0)
(0.0505979 -8.08655e-05 0)
(0.041805 -0.00491432 0)
(0.0273083 -0.00539023 0)
)
;

boundaryField
{
    movingWall
    {
        type            fixedValue;
        value           uniform (1 0 0);
    }
    fixedWalls
    {
        type            noSlip;
    }
    frontAndBack
    {
        type            empty;
    }
}


// ************************************************************************* //
