/*--------------------------------*- C++ -*----------------------------------*\
| =========                 |                                                 |
| \\      /  F ield         | OpenFOAM: The Open Source CFD Toolbox           |
|  \\    /   O peration     | Version:  5.x                                   |
|   \\  /    A nd           | Web:      www.OpenFOAM.org                      |
|    \\/     M anipulation  |                                                 |
\*---------------------------------------------------------------------------*/
FoamFile
{
    version     2.0;
    format      ascii;
    class       surfaceScalarField;
    location    "4.6";
    object      phi;
}
// * * * * * * * * * * * * * * * * * * * * * * * * * * * * * * * * * * * * * //

dimensions      [0 3 -1 0 0 0 0];

internalField   nonuniform List<scalar> 
760
(
-1.73685e-08
1.73685e-08
-3.61628e-08
1.87943e-08
-5.59216e-08
1.97588e-08
-7.72185e-08
2.12969e-08
-1.00707e-07
2.34888e-08
-1.27197e-07
2.64898e-08
-1.57738e-07
3.05404e-08
-1.93751e-07
3.60136e-08
-2.37209e-07
4.34579e-08
-2.90951e-07
5.37424e-08
-3.59223e-07
6.82719e-08
-4.48611e-07
8.9388e-08
-5.69769e-07
1.21158e-07
-7.40904e-07
1.71134e-07
-9.94294e-07
2.5339e-07
-1.37287e-06
3.78575e-07
-1.85488e-06
4.82015e-07
-2.19209e-06
3.37206e-07
-1.85984e-06
-3.3225e-07
-1.85984e-06
-1.8191e-08
3.55595e-08
-3.78314e-08
3.84347e-08
-5.84022e-08
4.03296e-08
-8.0444e-08
4.33387e-08
-1.04565e-07
4.76094e-08
-1.31502e-07
5.34268e-08
-1.6219e-07
6.12287e-08
-1.97852e-07
7.16761e-08
-2.40157e-07
8.57624e-08
-2.91421e-07
1.05007e-07
-3.54927e-07
1.31778e-07
-4.354e-07
1.69861e-07
-5.39661e-07
2.25419e-07
-6.76811e-07
3.08285e-07
-8.55225e-07
4.31804e-07
-1.07589e-06
5.99241e-07
-1.30473e-06
7.10849e-07
-1.34557e-06
3.78048e-07
-7.6005e-07
-9.17767e-07
-2.61989e-06
-1.73322e-08
5.28917e-08
-3.60684e-08
5.71709e-08
-5.56359e-08
5.98971e-08
-7.64972e-08
6.42e-08
-9.91533e-08
7.02654e-08
-1.24188e-07
7.84619e-08
-1.52312e-07
8.93528e-08
-1.84412e-07
1.03776e-07
-2.21614e-07
1.22964e-07
-2.6535e-07
1.48743e-07
-3.17406e-07
1.83833e-07
-3.79892e-07
2.32347e-07
-4.54956e-07
3.00483e-07
-5.43697e-07
3.97026e-07
-6.40494e-07
5.28602e-07
-7.21816e-07
6.80563e-07
-7.76475e-07
7.65508e-07
-7.60158e-07
3.61731e-07
-4.32296e-07
-1.24563e-06
-3.05219e-06
-1.59776e-08
6.88693e-08
-3.32971e-08
7.44905e-08
-5.13201e-08
7.792e-08
-7.04036e-08
8.32835e-08
-9.09066e-08
9.07684e-08
-1.13216e-07
1.00771e-07
-1.37762e-07
1.13899e-07
-1.65029e-07
1.31043e-07
-1.95549e-07
1.53485e-07
-2.29845e-07
1.83039e-07
-2.68273e-07
2.22261e-07
-3.10708e-07
2.74782e-07
-3.55739e-07
3.45514e-07
-3.99473e-07
4.4076e-07
-4.37309e-07
5.66437e-07
-4.37968e-07
6.81222e-07
-3.99205e-07
7.26744e-07
-3.27789e-07
2.90316e-07
-2.74759e-07
-1.29866e-06
-3.32695e-06
-1.42587e-08
8.3128e-08
-2.98043e-08
9.00361e-08
-4.59251e-08
9.40409e-08
-6.28623e-08
1.00221e-07
-8.08161e-08
1.08722e-07
-9.99612e-08
1.19916e-07
-1.20439e-07
1.34376e-07
-1.42332e-07
1.52936e-07
-1.65597e-07
1.7675e-07
-1.89948e-07
2.0739e-07
-2.14575e-07
2.46889e-07
-2.37792e-07
2.97999e-07
-2.56787e-07
3.64509e-07
-2.61785e-07
4.45758e-07
-2.53556e-07
5.58208e-07
-1.99095e-07
6.26762e-07
-1.02853e-07
6.30502e-07
1.66061e-08
1.70856e-07
1.30394e-07
-1.41245e-06
-3.19655e-06
-1.22359e-08
9.53639e-08
-2.57377e-08
1.03538e-07
-3.97219e-08
1.08025e-07
-5.43102e-08
1.14809e-07
-6.9545e-08
1.23957e-07
-8.53877e-08
1.35759e-07
-1.01716e-07
1.50705e-07
-1.1828e-07
1.695e-07
-1.34613e-07
1.93082e-07
-1.49916e-07
2.22693e-07
-1.62813e-07
2.59786e-07
-1.69954e-07
3.05139e-07
-1.71079e-07
3.65634e-07
-1.45753e-07
4.20432e-07
-1.12142e-07
5.24596e-07
-3.22462e-08
5.46866e-07
7.60828e-08
5.22173e-07
1.71229e-07
7.57097e-08
1.67808e-07
-1.40903e-06
-3.02874e-06
-9.92233e-09
1.05286e-07
-2.11964e-08
1.14812e-07
-3.29121e-08
1.19741e-07
-4.51221e-08
1.27019e-07
-5.76618e-08
1.36497e-07
-7.03088e-08
1.48406e-07
-8.26952e-08
1.63091e-07
-9.4316e-08
1.81121e-07
-1.0439e-07
2.03157e-07
-1.11675e-07
2.29978e-07
-1.15332e-07
2.63444e-07
-1.07556e-07
2.97363e-07
-9.82324e-08
3.5631e-07
-6.16132e-08
3.83813e-07
-1.07139e-08
4.73697e-07
6.51627e-08
4.7099e-07
1.47626e-07
4.3971e-07
1.93899e-07
2.94372e-08
3.11399e-08
-1.24627e-06
-2.9976e-06
-7.33297e-09
1.12619e-07
-1.62616e-08
1.23741e-07
-2.56872e-08
1.29166e-07
-3.56007e-08
1.36933e-07
-4.56695e-08
1.46565e-07
-5.54524e-08
1.58189e-07
-6.4445e-08
1.72084e-07
-7.19879e-08
1.88664e-07
-7.73349e-08
2.08504e-07
-7.80508e-08
2.30694e-07
-7.72147e-08
2.62608e-07
-6.26281e-08
2.82777e-07
-4.62886e-08
3.39971e-07
-9.91799e-09
3.47442e-07
4.4157e-08
4.19622e-07
1.1918e-07
3.95966e-07
1.89769e-07
3.69121e-07
2.36037e-07
-1.68308e-08
1.26264e-07
-1.13649e-06
-2.87134e-06
-4.1191e-09
1.16738e-07
-1.07121e-08
1.30334e-07
-1.77162e-08
1.3617e-07
-2.59756e-08
1.45192e-07
-3.39093e-08
1.54499e-07
-4.14878e-08
1.65767e-07
-4.76551e-08
1.78251e-07
-5.17528e-08
1.92761e-07
-5.3508e-08
2.10259e-07
-4.86457e-08
2.25831e-07
-4.25609e-08
2.56523e-07
-2.51302e-08
2.65346e-07
1.54096e-09
3.13299e-07
3.67852e-08
3.12198e-07
8.45279e-08
3.71879e-07
1.53513e-07
3.26981e-07
2.1257e-07
3.10065e-07
2.36408e-07
-4.06691e-08
1.71723e-07
-1.07181e-06
-2.69962e-06
-7.77399e-10
1.17516e-07
-4.99672e-09
1.34553e-07
-1.00766e-08
1.4125e-07
-1.6431e-08
1.51546e-07
-2.26585e-08
1.60726e-07
-2.82605e-08
1.71369e-07
-3.25471e-08
1.82538e-07
-3.41016e-08
1.94316e-07
-3.42057e-08
2.10363e-07
-2.84172e-08
2.20043e-07
-1.98061e-08
2.47912e-07
-5.91006e-09
2.5145e-07
1.82773e-08
2.89112e-07
4.91402e-08
2.81335e-07
9.08991e-08
3.30121e-07
1.42412e-07
2.75468e-07
1.82854e-07
2.69623e-07
1.91455e-07
-4.92695e-08
5.04338e-08
-9.30787e-07
-2.64918e-06
6.44402e-09
1.11072e-07
5.138e-09
1.35859e-07
1.88982e-09
1.44498e-07
-5.58268e-09
1.59019e-07
-1.19311e-08
1.67075e-07
-1.85413e-08
1.77979e-07
-2.16503e-08
1.85647e-07
-2.15404e-08
1.94206e-07
-1.81462e-08
2.06969e-07
-1.08039e-08
2.12701e-07
3.74605e-09
2.33362e-07
1.99138e-08
2.35282e-07
4.4958e-08
2.64068e-07
7.76477e-08
2.48646e-07
1.11138e-07
2.9663e-07
1.53913e-07
2.32694e-07
1.72701e-07
2.50834e-07
1.56725e-07
-3.32932e-08
4.4971e-09
-7.7856e-07
-2.64469e-06
1.11379e-08
9.99338e-08
8.08651e-09
1.3891e-07
4.30167e-09
1.48283e-07
8.9772e-10
1.62423e-07
-3.13456e-09
1.71107e-07
-5.78472e-09
1.8063e-07
-7.47263e-09
1.87335e-07
-8.00623e-09
1.94739e-07
-3.93376e-09
2.02896e-07
-5.63991e-10
2.09331e-07
1.13921e-08
2.21406e-07
2.1487e-08
2.25187e-07
4.1311e-08
2.44244e-07
5.65472e-08
2.33409e-07
8.75444e-08
2.65633e-07
1.1097e-07
2.09268e-07
1.40468e-07
2.21336e-07
1.53165e-07
-4.59894e-08
7.24025e-08
-6.97797e-07
-2.57228e-06
3.65238e-08
6.341e-08
4.43592e-08
1.31075e-07
3.9762e-08
1.5288e-07
2.12812e-08
1.80904e-07
7.28627e-09
1.85102e-07
-5.32934e-09
1.93245e-07
-9.53678e-09
1.91542e-07
-9.2786e-09
1.94481e-07
-1.81569e-09
1.95433e-07
6.49608e-09
2.01019e-07
2.31019e-08
2.048e-07
3.95024e-08
2.08787e-07
6.48333e-08
2.18913e-07
9.12021e-08
2.07041e-07
1.22104e-07
2.34731e-07
1.47737e-07
1.83636e-07
1.65218e-07
2.03854e-07
1.10023e-07
9.20534e-09
5.08907e-08
-6.38665e-07
-2.52139e-06
4.87074e-08
1.47026e-08
1.77847e-08
1.61998e-07
9.28881e-09
1.61376e-07
1.33757e-08
1.76817e-07
1.19929e-08
1.86485e-07
1.17712e-08
1.93467e-07
1.11333e-08
1.9218e-07
1.09464e-08
1.94668e-07
1.53083e-08
1.91071e-07
1.99231e-08
1.96404e-07
2.85919e-08
1.96131e-07
3.34337e-08
2.03945e-07
4.77582e-08
2.04588e-07
3.97829e-08
2.15016e-07
6.33196e-08
2.11194e-07
3.33545e-08
2.13601e-07
8.74417e-08
1.49767e-07
8.33185e-08
1.33285e-08
1.3224e-08
-5.68571e-07
-2.50817e-06
1.41767e-07
-1.27064e-07
1.38215e-07
1.65549e-07
1.04e-07
1.95591e-07
3.44497e-08
2.46367e-07
-6.05965e-09
2.26994e-07
-2.84254e-08
2.15833e-07
-3.06396e-08
1.94394e-07
-2.52638e-08
1.89292e-07
-1.26992e-08
1.78507e-07
-1.43701e-09
1.85142e-07
2.045e-08
1.74244e-07
3.41527e-08
1.90242e-07
6.41004e-08
1.74641e-07
7.79211e-08
2.01195e-07
1.27098e-07
1.62017e-07
1.32199e-07
2.085e-07
1.45783e-07
1.36183e-07
1.21754e-08
1.46937e-07
-4.04721e-08
-5.15923e-07
-2.54864e-06
2.4279e-07
-3.69854e-07
1.36091e-07
2.72249e-07
1.47842e-07
1.8384e-07
1.45053e-07
2.49156e-07
1.12744e-07
2.59302e-07
8.32989e-08
2.45278e-07
6.86493e-08
2.09044e-07
5.94801e-08
1.98462e-07
6.03682e-08
1.77619e-07
6.44166e-08
1.81094e-07
7.0926e-08
1.67735e-07
7.37427e-08
1.87426e-07
8.51745e-08
1.63209e-07
6.35937e-08
2.22776e-07
4.55214e-08
1.80089e-07
-2.40009e-08
2.78022e-07
8.67644e-08
2.54178e-08
4.75049e-08
1.86196e-07
4.4559e-08
-5.12977e-07
-2.50408e-06
1.11339e-07
-4.81193e-07
-1.60934e-07
5.44522e-07
-3.02748e-07
3.25654e-07
-3.13412e-07
2.5982e-07
-3.07458e-07
2.53349e-07
-2.6353e-07
2.0135e-07
-2.25143e-07
1.70657e-07
-1.90892e-07
1.6421e-07
-1.52556e-07
1.39283e-07
-1.25208e-07
1.53746e-07
-9.47548e-08
1.37282e-07
-6.8779e-08
1.6145e-07
-4.10268e-08
1.35457e-07
-3.67375e-08
2.18487e-07
5.18383e-08
9.15135e-08
-2.49998e-08
3.5486e-07
1.3373e-07
-1.33312e-07
1.21582e-07
1.98345e-07
3.87909e-08
-4.30186e-07
-2.46529e-06
-8.02107e-09
-4.73172e-07
3.9881e-07
1.37691e-07
4.01543e-07
3.22921e-07
4.49638e-07
2.11725e-07
5.148e-07
1.88187e-07
5.34979e-07
1.81171e-07
5.62623e-07
1.43013e-07
5.38918e-07
1.87915e-07
5.44952e-07
1.33248e-07
5.08935e-07
1.89763e-07
4.94975e-07
1.51242e-07
4.60041e-07
1.96384e-07
4.47241e-07
1.48257e-07
4.41296e-07
2.24431e-07
4.73584e-07
5.92263e-08
3.36796e-07
4.91647e-07
2.55483e-07
-5.19997e-08
1.60279e-07
2.93549e-07
2.4912e-07
-5.19028e-07
-2.21617e-06
-8.51624e-07
3.78452e-07
-9.6695e-07
2.53017e-07
-8.80814e-07
2.36785e-07
-8.54431e-07
1.85343e-07
-8.18992e-07
1.52748e-07
-7.86661e-07
1.4884e-07
-7.88672e-07
1.45024e-07
-7.48407e-07
1.47651e-07
-7.1432e-07
9.91609e-08
-6.48672e-07
1.24115e-07
-6.11548e-07
1.14117e-07
-5.27705e-07
1.12541e-07
-4.64701e-07
8.52521e-08
-3.31386e-07
9.11165e-08
-3.37498e-07
6.53383e-08
-3.01778e-08
1.84327e-07
3.28955e-09
-8.5467e-08
2.9066e-07
6.17838e-09
6.64722e-07
-8.93089e-07
-1.55145e-06
3.78452e-07
6.31469e-07
8.68254e-07
1.0536e-06
1.20634e-06
1.35518e-06
1.50021e-06
1.64786e-06
1.74702e-06
1.87113e-06
1.98525e-06
2.09779e-06
2.18305e-06
2.27416e-06
2.3395e-06
2.52383e-06
2.43836e-06
2.44454e-06
1.55145e-06
)
;

boundaryField
{
    movingWall
    {
        type            calculated;
        value           uniform 0;
    }
    fixedWalls
    {
        type            calculated;
        value           uniform 0;
    }
    frontAndBack
    {
        type            empty;
        value           nonuniform 0();
    }
}


// ************************************************************************* //
