/*--------------------------------*- C++ -*----------------------------------*\
| =========                 |                                                 |
| \\      /  F ield         | OpenFOAM: The Open Source CFD Toolbox           |
|  \\    /   O peration     | Version:  5.x                                   |
|   \\  /    A nd           | Web:      www.OpenFOAM.org                      |
|    \\/     M anipulation  |                                                 |
\*---------------------------------------------------------------------------*/
FoamFile
{
    version     2.0;
    format      ascii;
    class       volVectorField;
    location    "4.6";
    object      U;
}
// * * * * * * * * * * * * * * * * * * * * * * * * * * * * * * * * * * * * * //

dimensions      [0 1 -1 0 0 0 0];

internalField   nonuniform List<vector> 
400
(
(-0.000169498 0.000171531 0)
(-0.000530671 0.000185717 0)
(-0.000918237 0.000195454 0)
(-0.00132647 0.000210965 0)
(-0.00177262 0.000233046 0)
(-0.0022699 0.000263218 0)
(-0.00283688 0.000303825 0)
(-0.00349772 0.000358496 0)
(-0.00428555 0.000433051 0)
(-0.00524706 0.000536521 0)
(-0.00645057 0.000683357 0)
(-0.0079993 0.000897772 0)
(-0.0100519 0.00122238 0)
(-0.0128742 0.0017393 0)
(-0.0169651 0.00261382 0)
(-0.023006 0.0040162 0)
(-0.0319056 0.0053561 0)
(-0.0439015 0.00397711 0)
(-0.0517099 -0.0049967 0)
(-0.0116472 -0.0302598 0)
(-0.000177554 0.000528174 0)
(-0.000555492 0.000571141 0)
(-0.000959838 0.000599924 0)
(-0.00138368 0.000645742 0)
(-0.0018437 0.000710885 0)
(-0.00235192 0.000799796 0)
(-0.00292508 0.000919292 0)
(-0.00358424 0.00107977 0)
(-0.00435759 0.0012972 0)
(-0.00528376 0.00159625 0)
(-0.00641667 0.00201595 0)
(-0.00783272 0.00262022 0)
(-0.00963495 0.00351736 0)
(-0.0119581 0.0048979 0)
(-0.0150591 0.00707918 0)
(-0.0192721 0.0102214 0)
(-0.0238143 0.0124979 0)
(-0.0261665 0.00794365 0)
(-0.0339914 -0.0109938 0)
(0.00962182 -0.0522703 0)
(-0.000168949 0.000886522 0)
(-0.000529365 0.000958078 0)
(-0.00091472 0.00100446 0)
(-0.00131688 0.00107792 0)
(-0.00175064 0.00118186 0)
(-0.00222545 0.00132295 0)
(-0.00275432 0.00151136 0)
(-0.00335277 0.00176235 0)
(-0.00404035 0.0020986 0)
(-0.00484164 0.00255427 0)
(-0.00578715 0.00318159 0)
(-0.00691357 0.00406202 0)
(-0.00825554 0.00532403 0)
(-0.00981667 0.00716139 0)
(-0.0115955 0.00979425 0)
(-0.0138267 0.0131334 0)
(-0.0160736 0.0150792 0)
(-0.0142521 0.00734624 0)
(-0.018573 -0.0221296 0)
(0.0038276 -0.0531794 0)
(-0.000155399 0.00121993 0)
(-0.00048822 0.00131893 0)
(-0.000844072 0.00138069 0)
(-0.00121322 0.0014778 0)
(-0.0016079 0.00161404 0)
(-0.00203425 0.0017972 0)
(-0.00250048 0.00203916 0)
(-0.00301534 0.00235751 0)
(-0.00358844 0.00277787 0)
(-0.00422934 0.00333747 0)
(-0.00494552 0.00409051 0)
(-0.00573849 0.00511657 0)
(-0.00659369 0.00653055 0)
(-0.00745842 0.00848304 0)
(-0.00818838 0.0110916 0)
(-0.00867934 0.0138439 0)
(-0.00966489 0.0151419 0)
(-0.00710675 0.00633831 0)
(-0.00676788 -0.0276505 0)
(-0.00278458 -0.0666303 0)
(-0.000138165 0.00152295 0)
(-0.000436176 0.00164814 0)
(-0.000755397 0.00172265 0)
(-0.00108429 0.00183849 0)
(-0.00143224 0.00199911 0)
(-0.0018017 0.00221229 0)
(-0.00219587 0.00248999 0)
(-0.00261662 0.00284968 0)
(-0.00306405 0.00331601 0)
(-0.00353454 0.00392324 0)
(-0.00401689 0.0047179 0)
(-0.00448771 0.00576361 0)
(-0.00490184 0.00715041 0)
(-0.00515012 0.00894069 0)
(-0.00522912 0.0113153 0)
(-0.00431007 0.0132148 0)
(-0.00417104 0.01377 0)
(-0.000413368 0.0049104 0)
(0.000929755 -0.0268997 0)
(0.005192 -0.0669732 0)
(-0.000117794 0.00178849 0)
(-0.00037526 0.00193921 0)
(-0.00065285 0.0020242 0)
(-0.000937066 0.0021543 0)
(-0.00123451 0.00233146 0)
(-0.00154395 0.00256263 0)
(-0.00186393 0.00285845 0)
(-0.00219059 0.00323463 0)
(-0.00251681 0.00371247 0)
(-0.00283044 0.00432067 0)
(-0.00310985 0.00509582 0)
(-0.00331218 0.00607551 0)
(-0.00341788 0.00736231 0)
(-0.00315248 0.00878003 0)
(-0.00297866 0.0109426 0)
(-0.00107275 0.0119256 0)
(-0.000493972 0.0117939 0)
(0.0033101 0.00260248 0)
(0.0031687 -0.0275043 0)
(0.00431573 -0.0583682 0)
(-9.42116e-05 0.00201092 0)
(-0.00030643 0.00218691 0)
(-0.000539419 0.00228099 0)
(-0.000777321 0.00242117 0)
(-0.00102432 0.00260817 0)
(-0.00127532 0.00284613 0)
(-0.00152475 0.00314423 0)
(-0.00176395 0.0035146 0)
(-0.00198023 0.00397364 0)
(-0.00215501 0.00454059 0)
(-0.00226973 0.00524912 0)
(-0.00222923 0.00604877 0)
(-0.00221306 0.00722569 0)
(-0.00142319 0.00807596 0)
(-0.00132551 0.00997393 0)
(0.0010442 0.0101881 0)
(0.00126275 0.00963982 0)
(0.00459249 0.000739493 0)
(0.00282668 -0.0270962 0)
(-0.00131029 -0.0601688 0)
(-6.74534e-05 0.00218388 0)
(-0.0002303 0.00239137 0)
(-0.000417835 0.00249439 0)
(-0.000610172 0.00264801 0)
(-0.00080983 0.00283844 0)
(-0.00100835 0.0030758 0)
(-0.00119609 0.00336176 0)
(-0.00136206 0.00370985 0)
(-0.00149198 0.00413135 0)
(-0.00155534 0.00462796 0)
(-0.00160439 0.00528729 0)
(-0.00132073 0.00585647 0)
(-0.00139242 0.00702915 0)
(-0.000219958 0.00743921 0)
(-0.000304629 0.00911715 0)
(0.00230484 0.00888106 0)
(0.00206518 0.008226 0)
(0.0060021 0.000220566 0)
(0.00264782 -0.0240193 0)
(0.00295796 -0.0602765 0)
(-3.07426e-05 0.00230282 0)
(-0.000139871 0.00254009 0)
(-0.000282433 0.00265352 0)
(-0.00043372 0.00280712 0)
(-0.000597445 0.00300212 0)
(-0.00075301 0.00322659 0)
(-0.000892171 0.00349765 0)
(-0.000996241 0.00381058 0)
(-0.00106568 0.00418794 0)
(-0.00100204 0.00456823 0)
(-0.00105682 0.00518553 0)
(-0.000484113 0.0054705 0)
(-0.000679072 0.00649568 0)
(0.00077626 0.00650434 0)
(0.000476113 0.00778081 0)
(0.00324585 0.00699746 0)
(0.00236408 0.00662142 0)
(0.00679322 -0.000788505 0)
(0.00190446 -0.0217982 0)
(0.00557745 -0.0547002 0)
(8.10447e-06 0.00234408 0)
(-4.31854e-05 0.00266891 0)
(-0.000150104 0.00279248 0)
(-0.000261797 0.00304132 0)
(-0.000388435 0.00320964 0)
(-0.00051159 0.00345233 0)
(-0.000610188 0.00366528 0)
(-0.000669919 0.00392894 0)
(-0.000733222 0.00424996 0)
(-0.000548318 0.00450899 0)
(-0.000700519 0.00510457 0)
(3.10557e-05 0.00524588 0)
(-0.000348318 0.006161 0)
(0.00122807 0.00612315 0)
(0.000461254 0.00729375 0)
(0.00358267 0.00640472 0)
(0.00151483 0.00606321 0)
(0.00647562 -0.000708023 0)
(0.000620533 -0.0198267 0)
(0.00167823 -0.0521603 0)
(0.000115055 0.00233824 0)
(0.000128122 0.00269572 0)
(8.68349e-05 0.00283076 0)
(-1.78343e-05 0.00294499 0)
(-0.000192269 0.00314875 0)
(-0.000302553 0.00330188 0)
(-0.000422711 0.00355255 0)
(-0.000417802 0.00375237 0)
(-0.000496579 0.00408799 0)
(-0.000153724 0.00423167 0)
(-0.000353981 0.00473963 0)
(0.000555324 0.00474248 0)
(0.000101069 0.00537872 0)
(0.00193771 0.00500776 0)
(0.000802928 0.00592413 0)
(0.00412811 0.00434657 0)
(0.00136938 0.00477928 0)
(0.00631735 -0.00145908 0)
(-0.000802066 -0.0175229 0)
(0.00108642 -0.0535793 0)
(0.000177247 0.00204868 0)
(0.000236414 0.00267583 0)
(0.000106121 0.00298687 0)
(5.56548e-05 0.00352417 0)
(-1.83157e-05 0.00365246 0)
(-9.98495e-05 0.00397877 0)
(-0.000148013 0.00401352 0)
(-0.000121399 0.00418381 0)
(-0.000242007 0.00432162 0)
(0.000125317 0.00442826 0)
(-0.000166937 0.00473476 0)
(0.000718825 0.00481499 0)
(-1.71902e-05 0.0053323 0)
(0.0019274 0.00517233 0)
(-2.52081e-05 0.00608165 0)
(0.00404397 0.0053032 0)
(-0.000271607 0.00523814 0)
(0.00674722 0.000160377 0)
(-0.00158545 -0.0143685 0)
(0.005053 -0.0526917 0)
(0.00054074 0.00202328 0)
(0.000869813 0.00305874 0)
(0.000909074 0.00295777 0)
(0.000643853 0.00286618 0)
(0.000236156 0.00304547 0)
(3.86823e-05 0.00304038 0)
(-0.000238058 0.00329656 0)
(-0.000129775 0.0033902 0)
(-0.000277566 0.00361658 0)
(0.000229315 0.00374858 0)
(-2.95675e-05 0.00395712 0)
(0.00109138 0.00401672 0)
(0.000272555 0.0042622 0)
(0.00264301 0.0038938 0)
(0.000558753 0.00436169 0)
(0.00490938 0.00263864 0)
(0.000244551 0.00345672 0)
(0.00729086 -0.00212942 0)
(-0.00371144 -0.0138366 0)
(0.00627275 -0.0502345 0)
(0.00105704 0.000379641 0)
(0.000734945 0.00192307 0)
(5.26551e-05 0.00304878 0)
(0.000283015 0.00450537 0)
(0.000278033 0.00456048 0)
(0.000214393 0.00496679 0)
(0.000234259 0.00461097 0)
(0.000241177 0.00465872 0)
(0.000154286 0.00443757 0)
(0.000527106 0.00453394 0)
(0.00016585 0.00446254 0)
(0.00113333 0.00457405 0)
(-6.0276e-06 0.00472391 0)
(0.0022178 0.00472114 0)
(-0.000960693 0.00528613 0)
(0.00398739 0.00520913 0)
(-0.00307106 0.00496915 0)
(0.00730181 0.00260522 0)
(-0.00469524 -0.0106252 0)
(0.00549135 -0.049701 0)
(0.0023543 0.000332484 0)
(0.00305369 0.00502621 0)
(0.00262627 0.00360149 0)
(0.00140089 0.00249741 0)
(5.12215e-05 0.0026768 0)
(-0.000319543 0.00242905 0)
(-0.000760093 0.00276857 0)
(-0.000494955 0.00280581 0)
(-0.000537056 0.00292167 0)
(7.83375e-05 0.00303756 0)
(-0.00015911 0.00309846 0)
(0.00110223 0.00330343 0)
(6.66512e-05 0.00317382 0)
(0.00281376 0.00349575 0)
(-0.000105148 0.00280994 0)
(0.00577972 0.002741 0)
(-0.00119019 0.000611081 0)
(0.00790999 -0.00221833 0)
(-0.00773278 -0.0134833 0)
(0.00663648 -0.0516892 0)
(0.00536051 -0.00583459 0)
(0.00364255 0.00113912 0)
(0.00231676 0.00419292 0)
(0.00321203 0.00756738 0)
(0.00278895 0.00668788 0)
(0.00181192 0.00664006 0)
(0.00144875 0.00537197 0)
(0.00131171 0.00513174 0)
(0.0010291 0.00453611 0)
(0.00147237 0.00469167 0)
(0.000966913 0.00418757 0)
(0.00206352 0.00463321 0)
(0.000628089 0.00410557 0)
(0.00311378 0.00497886 0)
(-0.000915395 0.004023 0)
(0.00306895 0.00620175 0)
(-0.00426142 0.0054408 0)
(0.00823505 0.00845693 0)
(-0.00679393 -0.00585174 0)
(0.00900383 -0.0509431 0)
(0.001487 -0.0080576 0)
(0.00225745 0.0104635 0)
(-0.00798174 0.00311667 0)
(-0.00474996 0.00192844 0)
(-0.00732169 0.00329367 0)
(-0.00532487 0.00263515 0)
(-0.00494382 0.00257874 0)
(-0.00424938 0.00240297 0)
(-0.00323886 0.00222719 0)
(-0.00295982 0.00219122 0)
(-0.00210815 0.00217173 0)
(-0.00158419 0.00246514 0)
(-0.00123942 0.0021316 0)
(-0.00034665 0.00338764 0)
(-0.00121131 0.00292139 0)
(0.00356823 0.00428739 0)
(-0.0048668 -0.00479184 0)
(0.0110967 -0.00153447 0)
(-0.00723183 -0.0165396 0)
(0.00935207 -0.0515741 0)
(-0.0104392 -0.0126276 0)
(0.00986437 0.00952585 0)
(0.00780551 0.00940725 0)
(0.00741759 0.00886867 0)
(0.0101445 0.0069928 0)
(0.0107011 0.00576756 0)
(0.0107207 0.00456595 0)
(0.0115439 0.00453236 0)
(0.0102795 0.003643 0)
(0.0113058 0.00430428 0)
(0.00918209 0.00368327 0)
(0.0106448 0.00444003 0)
(0.00744158 0.00362243 0)
(0.0110506 0.00589355 0)
(0.00586928 0.000708959 0)
(0.0127769 0.0105401 0)
(0.00153008 0.000363338 0)
(0.00788622 0.0101569 0)
(-0.00120687 0.00158651 0)
(0.0121143 -0.0474762 0)
(-0.0225937 -0.00442649 0)
(-0.0136945 -0.0030911 0)
(-0.0231129 0.00364605 0)
(-0.0125099 7.63315e-06 0)
(-0.0216412 0.000758512 0)
(-0.0111479 0.00138688 0)
(-0.0207881 0.000850802 0)
(-0.0109767 0.00250363 0)
(-0.0182877 0.00133666 0)
(-0.0107932 0.0028339 0)
(-0.0148044 0.00191845 0)
(-0.0100435 0.0028282 0)
(-0.0109769 0.00185618 0)
(-0.00712616 0.00252721 0)
(-0.00584456 0.00143933 0)
(-0.00859567 0.0077711 0)
(0.00767437 -0.00291708 0)
(-0.00751214 0.000174302 0)
(0.0172245 -0.0257866 0)
(0.0132479 -0.0473791 0)
(-0.000323443 0.0178928 0)
(0.015018 0.0125716 0)
(0.0118091 0.00647902 0)
(0.020769 0.00691136 0)
(0.0232483 0.00556993 0)
(0.0240466 0.00478487 0)
(0.029939 0.00531283 0)
(0.0304974 0.00385523 0)
(0.0351582 0.00295902 0)
(0.0348551 0.00251583 0)
(0.0399055 0.00302282 0)
(0.0391539 0.00208801 0)
(0.0447495 0.0018799 0)
(0.0428337 0.00146341 0)
(0.0478865 0.00153229 0)
(0.0471138 0.000583913 0)
(0.0498179 -0.000109657 0)
(0.0501857 0.000331068 0)
(0.042054 -0.00481376 0)
(0.0278119 -0.00623657 0)
)
;

boundaryField
{
    movingWall
    {
        type            fixedValue;
        value           uniform (1 0 0);
    }
    fixedWalls
    {
        type            noSlip;
    }
    frontAndBack
    {
        type            empty;
    }
}


// ************************************************************************* //
