/*--------------------------------*- C++ -*----------------------------------*\
| =========                 |                                                 |
| \\      /  F ield         | OpenFOAM: The Open Source CFD Toolbox           |
|  \\    /   O peration     | Version:  5.x                                   |
|   \\  /    A nd           | Web:      www.OpenFOAM.org                      |
|    \\/     M anipulation  |                                                 |
\*---------------------------------------------------------------------------*/
FoamFile
{
    version     2.0;
    format      ascii;
    class       surfaceScalarField;
    location    "2.4";
    object      phi;
}
// * * * * * * * * * * * * * * * * * * * * * * * * * * * * * * * * * * * * * //

dimensions      [0 3 -1 0 0 0 0];

internalField   nonuniform List<scalar> 
760
(
-6.99523e-09
6.99525e-09
-1.42032e-08
7.20796e-09
-2.12685e-08
7.06534e-09
-2.81087e-08
6.84015e-09
-3.46323e-08
6.52363e-09
-4.07355e-08
6.1032e-09
-4.6299e-08
5.56343e-09
-5.11853e-08
4.88637e-09
-5.52376e-08
4.05228e-09
-5.82788e-08
3.04116e-09
-6.01143e-08
1.83548e-09
-6.05398e-08
4.25522e-10
-5.9319e-08
-1.22082e-09
-5.62655e-08
-3.05348e-09
-5.12373e-08
-5.02821e-09
-4.41772e-08
-7.06006e-09
-3.51551e-08
-9.02212e-09
-2.44044e-08
-1.07507e-08
-1.23542e-08
-1.20502e-08
-1.23542e-08
-7.36267e-09
1.43579e-08
-1.49463e-08
1.47915e-08
-2.23812e-08
1.45002e-08
-2.95816e-08
1.40406e-08
-3.64534e-08
1.33954e-08
-4.289e-08
1.25398e-08
-4.87695e-08
1.14429e-08
-5.39517e-08
1.00686e-08
-5.82758e-08
8.37635e-09
-6.15593e-08
6.32465e-09
-6.35999e-08
3.87606e-09
-6.41858e-08
1.01148e-09
-6.30562e-08
-2.35048e-09
-5.99835e-08
-6.12613e-09
-5.47952e-08
-1.02166e-08
-4.7404e-08
-1.44513e-08
-3.78529e-08
-1.85731e-08
-2.63609e-08
-2.22427e-08
-1.33802e-08
-2.50309e-08
-2.57344e-08
-7.50712e-09
2.1865e-08
-1.52515e-08
2.2536e-08
-2.28592e-08
2.21079e-08
-3.02509e-08
2.14322e-08
-3.73383e-08
2.04828e-08
-4.40206e-08
1.92221e-08
-5.01811e-08
1.76035e-08
-5.56837e-08
1.55711e-08
-6.03689e-08
1.30616e-08
-6.4051e-08
1.00068e-08
-6.6516e-08
6.34104e-09
-6.75242e-08
2.01972e-09
-6.67942e-08
-3.08053e-09
-6.40301e-08
-8.89026e-09
-5.89797e-08
-1.52669e-08
-5.14642e-08
-2.19668e-08
-4.14425e-08
-2.85948e-08
-2.90818e-08
-3.46034e-08
-1.48537e-08
-3.9259e-08
-4.05881e-08
-7.70917e-09
2.95742e-08
-1.56802e-08
3.0507e-08
-2.35335e-08
2.99612e-08
-3.11999e-08
2.90986e-08
-3.86002e-08
2.78831e-08
-4.56429e-08
2.62647e-08
-5.222e-08
2.41805e-08
-5.82029e-08
2.15541e-08
-6.34367e-08
1.82954e-08
-6.77338e-08
1.43038e-08
-7.08679e-08
9.47514e-09
-7.25704e-08
3.72227e-09
-7.25236e-08
-3.12734e-09
-7.03196e-08
-1.10943e-08
-6.55841e-08
-2.00024e-08
-5.79772e-08
-2.95737e-08
-4.72996e-08
-3.92725e-08
-3.36003e-08
-4.83026e-08
-1.73497e-08
-5.55096e-08
-5.79378e-08
-7.96485e-09
3.7539e-08
-1.62249e-08
3.8767e-08
-2.4393e-08
3.81293e-08
-3.24132e-08
3.71188e-08
-4.02186e-08
3.56885e-08
-4.77305e-08
3.37766e-08
-5.48545e-08
3.13045e-08
-6.14751e-08
2.81747e-08
-6.74484e-08
2.42687e-08
-7.2591e-08
1.94465e-08
-7.66678e-08
1.3552e-08
-7.93787e-08
6.43318e-09
-8.03792e-08
-2.12686e-09
-7.91036e-08
-1.23699e-08
-7.5009e-08
-2.4097e-08
-6.75028e-08
-3.70799e-08
-5.6089e-08
-5.06863e-08
-4.05657e-08
-6.3826e-08
-2.13265e-08
-7.47488e-08
-7.92643e-08
-8.26037e-09
4.57994e-08
-1.6859e-08
4.73656e-08
-2.53988e-08
4.66691e-08
-3.38399e-08
4.55598e-08
-4.213e-08
4.39787e-08
-5.02068e-08
4.18534e-08
-5.79948e-08
3.90925e-08
-6.54e-08
3.55799e-08
-7.22998e-08
3.11685e-08
-7.85281e-08
2.56748e-08
-8.38533e-08
1.88771e-08
-8.79445e-08
1.05244e-08
-9.04829e-08
4.11511e-10
-9.06711e-08
-1.21817e-08
-8.77814e-08
-2.69867e-08
-8.0846e-08
-4.40153e-08
-6.88584e-08
-6.26739e-08
-5.10809e-08
-8.16035e-08
-2.76459e-08
-9.81837e-08
-1.0691e-07
-8.57715e-09
5.43766e-08
-1.75476e-08
5.63361e-08
-2.65013e-08
5.56228e-08
-3.54157e-08
5.44742e-08
-4.42542e-08
5.28171e-08
-5.2973e-08
5.05723e-08
-6.15214e-08
4.76409e-08
-6.98368e-08
4.38953e-08
-7.78339e-08
3.91656e-08
-8.53861e-08
3.3227e-08
-9.22974e-08
2.57885e-08
-9.82647e-08
1.64917e-08
-1.02815e-07
4.96167e-09
-1.05294e-07
-9.7025e-09
-1.04534e-07
-2.77469e-08
-9.91085e-08
-4.94407e-08
-8.72191e-08
-7.45633e-08
-6.70335e-08
-1.01789e-07
-3.79753e-08
-1.27242e-07
-1.44886e-07
-8.89025e-09
6.32668e-08
-1.82469e-08
6.56928e-08
-2.76403e-08
6.50162e-08
-3.7065e-08
6.38989e-08
-4.64968e-08
6.2249e-08
-5.59109e-08
5.99863e-08
-6.52858e-08
5.70158e-08
-7.46012e-08
5.32108e-08
-8.38283e-08
4.83927e-08
-9.29094e-08
4.23081e-08
-1.01725e-07
3.46039e-08
-1.10036e-07
2.48025e-08
-1.17374e-07
1.23004e-08
-1.23145e-07
-3.93201e-09
-1.25912e-07
-2.49796e-08
-1.23681e-07
-5.16719e-08
-1.13526e-07
-8.47177e-08
-9.16818e-08
-1.23634e-07
-5.56537e-08
-1.6327e-07
-2.00539e-07
-9.16349e-09
7.24303e-08
-1.89005e-08
7.54297e-08
-2.87441e-08
7.48598e-08
-3.87031e-08
7.3858e-08
-4.87548e-08
7.23006e-08
-5.88883e-08
7.01199e-08
-6.9114e-08
6.72415e-08
-7.94644e-08
6.35612e-08
-8.9987e-08
5.89152e-08
-1.00727e-07
5.30477e-08
-1.11691e-07
4.55686e-08
-1.22789e-07
3.58998e-08
-1.33705e-07
2.32171e-08
-1.44118e-07
6.48014e-09
-1.52387e-07
-1.67104e-08
-1.56105e-07
-4.79539e-08
-1.51014e-07
-8.98086e-08
-1.30565e-07
-1.44083e-07
-8.76434e-08
-2.06191e-07
-2.88183e-07
-9.34377e-09
8.17741e-08
-1.94365e-08
8.55225e-08
-2.97285e-08
8.51518e-08
-4.02419e-08
8.43714e-08
-5.09255e-08
8.29842e-08
-6.17717e-08
8.09661e-08
-7.28209e-08
7.82907e-08
-8.41662e-08
7.49065e-08
-9.59516e-08
7.07006e-08
-1.08365e-07
6.54613e-08
-1.21621e-07
5.8824e-08
-1.35909e-07
5.01884e-08
-1.51284e-07
3.85915e-08
-1.67316e-07
2.25122e-08
-1.83484e-07
-5.42333e-10
-1.97392e-07
-3.40462e-08
-2.03552e-07
-8.3648e-08
-1.92142e-07
-1.55493e-07
-1.49084e-07
-2.4925e-07
-4.37266e-07
-9.29652e-09
9.10706e-08
-1.97547e-08
9.59807e-08
-3.04815e-08
9.58785e-08
-4.16022e-08
9.54921e-08
-5.29255e-08
9.43076e-08
-6.44475e-08
9.24881e-08
-7.62312e-08
9.00744e-08
-8.84328e-08
8.71081e-08
-1.01298e-07
8.35658e-08
-1.15169e-07
7.93326e-08
-1.3049e-07
7.41449e-08
-1.47801e-07
6.74994e-08
-1.67722e-07
5.85125e-08
-1.90866e-07
4.56557e-08
-2.17681e-07
2.62735e-08
-2.47606e-07
-4.12138e-09
-2.75173e-07
-5.60815e-08
-2.88184e-07
-1.42481e-07
-2.7103e-07
-2.66404e-07
-7.08297e-07
-9.07207e-09
1.00143e-07
-1.97808e-08
1.06689e-07
-3.08969e-08
1.06995e-07
-4.27047e-08
1.073e-07
-5.46905e-08
1.06293e-07
-6.68364e-08
1.04634e-07
-7.92146e-08
1.02453e-07
-9.20419e-08
9.99354e-08
-1.05672e-07
9.71959e-08
-1.2064e-07
9.43002e-08
-1.37726e-07
9.12315e-08
-1.58031e-07
8.7804e-08
-1.82807e-07
8.32891e-08
-2.13608e-07
7.64563e-08
-2.52206e-07
6.48712e-08
-3.00999e-07
4.46716e-08
-3.63963e-07
6.88306e-09
-4.26699e-07
-7.9746e-08
-4.78871e-07
-2.14231e-07
-1.18717e-06
-6.86677e-09
1.07009e-07
-1.93327e-08
1.19155e-07
-3.05021e-08
1.18164e-07
-4.39363e-08
1.20734e-07
-5.6441e-08
1.18798e-07
-6.90914e-08
1.17284e-07
-8.17886e-08
1.1515e-07
-9.48437e-08
1.1299e-07
-1.08633e-07
1.10986e-07
-1.23716e-07
1.09383e-07
-1.40918e-07
1.08433e-07
-1.61627e-07
1.08513e-07
-1.88195e-07
1.09857e-07
-2.24167e-07
1.12429e-07
-2.74162e-07
1.14865e-07
-3.45724e-07
1.16234e-07
-4.5567e-07
1.16829e-07
-5.5558e-07
2.0164e-08
-6.37271e-07
-1.3254e-07
-1.82444e-06
-9.95674e-09
1.16966e-07
-1.8399e-08
1.27598e-07
-3.11833e-08
1.30948e-07
-4.31973e-08
1.32748e-07
-5.66543e-08
1.32255e-07
-7.00173e-08
1.30647e-07
-8.34223e-08
1.28555e-07
-9.67644e-08
1.26333e-07
-1.10504e-07
1.24725e-07
-1.25545e-07
1.24424e-07
-1.4311e-07
1.25999e-07
-1.64878e-07
1.30281e-07
-1.93096e-07
1.38075e-07
-2.31547e-07
1.5088e-07
-2.85681e-07
1.68999e-07
-3.56804e-07
1.87358e-07
-4.66385e-07
2.2641e-07
-5.33955e-07
8.77339e-08
-4.51831e-07
-2.14665e-07
-2.27627e-06
1.38588e-08
1.03107e-07
-1.03613e-08
1.51818e-07
-2.6271e-08
1.46858e-07
-4.81469e-08
1.54624e-07
-6.28367e-08
1.46945e-07
-7.70639e-08
1.44875e-07
-8.87319e-08
1.40223e-07
-9.98185e-08
1.37419e-07
-1.10768e-07
1.35675e-07
-1.22248e-07
1.35903e-07
-1.34391e-07
1.38142e-07
-1.49319e-07
1.45209e-07
-1.68272e-07
1.57027e-07
-1.97851e-07
1.80459e-07
-2.47137e-07
2.18286e-07
-3.08457e-07
2.48677e-07
-3.88365e-07
3.06318e-07
-4.53521e-07
1.5289e-07
-1.87937e-07
-4.80249e-07
-2.46421e-06
-1.84513e-08
1.21559e-07
-1.46878e-08
1.48054e-07
-2.69745e-08
1.59145e-07
-3.95534e-08
1.67203e-07
-5.31851e-08
1.60577e-07
-6.72501e-08
1.5894e-07
-8.1618e-08
1.54591e-07
-9.53739e-08
1.51175e-07
-1.08506e-07
1.48807e-07
-1.21507e-07
1.48904e-07
-1.34561e-07
1.51196e-07
-1.49651e-07
1.60299e-07
-1.68333e-07
1.75709e-07
-1.90627e-07
2.02753e-07
-2.32928e-07
2.60587e-07
-2.76828e-07
2.92577e-07
-3.14151e-07
3.43641e-07
-4.14775e-07
2.53515e-07
-1.70681e-07
-7.24343e-07
-2.63489e-06
6.24221e-08
5.91366e-08
-1.4335e-08
2.24811e-07
-6.13629e-08
2.06173e-07
-8.69993e-08
1.92839e-07
-9.92302e-08
1.72808e-07
-1.07432e-07
1.67141e-07
-1.11484e-07
1.58643e-07
-1.15654e-07
1.55345e-07
-1.16771e-07
1.49924e-07
-1.20942e-07
1.53076e-07
-1.16011e-07
1.46265e-07
-1.16881e-07
1.61169e-07
-1.03703e-07
1.62532e-07
-9.395e-08
1.93e-07
-9.98474e-08
2.66485e-07
-1.30149e-07
3.22878e-07
-2.20565e-07
4.34057e-07
-3.45777e-07
3.78726e-07
-1.41349e-07
-9.28771e-07
-2.77624e-06
1.67282e-07
-1.08145e-07
1.99973e-07
1.9212e-07
1.99731e-07
2.06415e-07
1.34597e-07
2.57973e-07
9.29282e-08
2.14476e-07
4.03408e-08
2.19729e-07
2.41917e-09
1.96564e-07
-3.2035e-08
1.89799e-07
-5.75889e-08
1.75478e-07
-7.99833e-08
1.7547e-07
-9.10576e-08
1.57339e-07
-9.64791e-08
1.66591e-07
-9.76799e-08
1.63732e-07
-8.17423e-08
1.77062e-07
-8.05129e-08
2.65255e-07
-4.87221e-08
2.91088e-07
3.98741e-08
3.45461e-07
1.18717e-07
2.99883e-07
2.58639e-07
-1.06869e-06
-2.5176e-06
-5.35115e-07
4.2697e-07
-6.33232e-07
2.90237e-07
-6.74098e-07
2.47281e-07
-6.36759e-07
2.20633e-07
-6.25237e-07
2.02955e-07
-5.79947e-07
1.74439e-07
-5.49191e-07
1.65809e-07
-5.15701e-07
1.56309e-07
-4.6533e-07
1.25106e-07
-4.40787e-07
1.50928e-07
-3.80857e-07
9.7409e-08
-3.4027e-07
1.26003e-07
-2.76706e-07
1.00168e-07
-1.91797e-07
9.21538e-08
-5.30365e-08
1.26495e-07
1.6857e-07
6.94815e-08
5.01033e-07
1.29968e-08
8.33425e-07
-3.25086e-08
7.72009e-07
-1.00728e-06
-1.74559e-06
4.2697e-07
7.17207e-07
9.64488e-07
1.18512e-06
1.38808e-06
1.56251e-06
1.72832e-06
1.88463e-06
2.00974e-06
2.16067e-06
2.25808e-06
2.38408e-06
2.48425e-06
2.5764e-06
2.7029e-06
2.77238e-06
2.78537e-06
2.75286e-06
1.74559e-06
)
;

boundaryField
{
    movingWall
    {
        type            calculated;
        value           uniform 0;
    }
    fixedWalls
    {
        type            calculated;
        value           uniform 0;
    }
    frontAndBack
    {
        type            empty;
        value           nonuniform 0();
    }
}


// ************************************************************************* //
