/*--------------------------------*- C++ -*----------------------------------*\
| =========                 |                                                 |
| \\      /  F ield         | OpenFOAM: The Open Source CFD Toolbox           |
|  \\    /   O peration     | Version:  5.x                                   |
|   \\  /    A nd           | Web:      www.OpenFOAM.org                      |
|    \\/     M anipulation  |                                                 |
\*---------------------------------------------------------------------------*/
FoamFile
{
    version     2.0;
    format      ascii;
    class       volScalarField;
    location    "16.4";
    object      p;
}
// * * * * * * * * * * * * * * * * * * * * * * * * * * * * * * * * * * * * * //

dimensions      [0 2 -2 0 0 0 0];

internalField   nonuniform List<scalar> 
400
(
1.98526e-10
-0.000582749
-0.00103495
-0.00133879
-0.00148907
-0.00157335
-0.00160295
-0.00160978
-0.00159562
-0.00159006
-0.00157237
-0.00156941
-0.00156494
-0.00155985
-0.00155138
-0.00145805
-0.00126091
-0.000939488
-0.000576081
0.000955864
-0.000638198
-0.00105236
-0.00134094
-0.00149359
-0.00157038
-0.00161282
-0.00161267
-0.00162185
-0.0016088
-0.00158825
-0.00159526
-0.00156976
-0.00159068
-0.00159208
-0.00161204
-0.0015902
-0.00153698
-0.0014561
-0.00130497
-0.000233409
-0.00106466
-0.00135577
-0.00147287
-0.00155712
-0.00157648
-0.00159646
-0.00160218
-0.00159831
-0.00159615
-0.00158382
-0.00158599
-0.00157901
-0.00159025
-0.00158309
-0.00160212
-0.00154279
-0.00157754
-0.00151118
-0.00145741
-0.000984102
-0.00130423
-0.00148567
-0.00152216
-0.0015562
-0.00156908
-0.00158413
-0.00159348
-0.00159677
-0.00160121
-0.00159537
-0.00159771
-0.00158805
-0.00159852
-0.0015973
-0.00161576
-0.00160405
-0.00161332
-0.00154012
-0.00160946
-0.00138318
-0.00142707
-0.00151502
-0.00152504
-0.00155018
-0.00156107
-0.00157566
-0.00158509
-0.00158956
-0.00159732
-0.00159011
-0.00159663
-0.00158605
-0.00159527
-0.00159831
-0.00162084
-0.0015921
-0.00163735
-0.00156407
-0.00160055
-0.00148211
-0.00146639
-0.00150412
-0.00152806
-0.00154059
-0.00155799
-0.0015713
-0.00158525
-0.00159294
-0.00160156
-0.00160046
-0.00160248
-0.00160093
-0.00159699
-0.00159812
-0.00163316
-0.00160323
-0.00166353
-0.00157966
-0.00164325
-0.00155904
-0.00149055
-0.0015152
-0.00152867
-0.00154405
-0.00155477
-0.00157058
-0.00158481
-0.00159624
-0.00160722
-0.00160227
-0.00159273
-0.00158173
-0.0015843
-0.00161408
-0.00162807
-0.00160611
-0.00166982
-0.00159957
-0.00161951
-0.0015884
-0.00150811
-0.00151203
-0.00152095
-0.00153327
-0.00154969
-0.00156625
-0.00158972
-0.00160782
-0.0016224
-0.0016186
-0.00163101
-0.00162973
-0.00159029
-0.00160175
-0.00163831
-0.00161432
-0.00164345
-0.00161581
-0.00166227
-0.00159476
-0.00150342
-0.0015202
-0.00152934
-0.00154261
-0.00155476
-0.00157015
-0.00160197
-0.00162551
-0.00164547
-0.0016404
-0.0016306
-0.00163122
-0.0016334
-0.00165848
-0.00168314
-0.00164923
-0.00165183
-0.00161413
-0.00163219
-0.00160647
-0.00149841
-0.00150314
-0.00150133
-0.00152179
-0.00153362
-0.00154415
-0.00159396
-0.00163113
-0.00166932
-0.00169055
-0.00170347
-0.00170216
-0.00168252
-0.00168736
-0.00168005
-0.00165495
-0.00166867
-0.00164848
-0.00165427
-0.00168675
-0.00148919
-0.00149706
-0.00151206
-0.00152274
-0.00154864
-0.00155603
-0.00161128
-0.00166104
-0.00170803
-0.00173527
-0.00178927
-0.00180395
-0.00179772
-0.0016954
-0.00176336
-0.00170063
-0.00185849
-0.00177091
-0.00176898
-0.00170276
-0.00148468
-0.00150243
-0.00149621
-0.001505
-0.00154721
-0.00153466
-0.00158486
-0.0016702
-0.00174414
-0.00176743
-0.00176928
-0.00186199
-0.00180713
-0.00160712
-0.0016962
-0.00163158
-0.00172658
-0.00165212
-0.00168503
-0.00160794
-0.001476
-0.0014569
-0.00149313
-0.00148238
-0.00155877
-0.00150987
-0.00161281
-0.00168778
-0.00181674
-0.00185537
-0.0017826
-0.00191982
-0.00178301
-0.00161565
-0.0017216
-0.00161035
-0.00164303
-0.00157366
-0.00158022
-0.00151921
-0.00146183
-0.00146528
-0.00150266
-0.00146442
-0.00154759
-0.00150547
-0.00159493
-0.00169602
-0.00183671
-0.00195229
-0.00179859
-0.00193691
-0.00174544
-0.00162049
-0.00161978
-0.0015917
-0.00164824
-0.00147435
-0.00150415
-0.00145899
-0.0014453
-0.00145549
-0.00149932
-0.00145241
-0.00152098
-0.00145559
-0.00156291
-0.00161981
-0.00177303
-0.0018773
-0.0017751
-0.0018551
-0.00169762
-0.00160425
-0.00169821
-0.00162453
-0.00165035
-0.00144408
-0.00140546
-0.00145232
-0.00137866
-0.00141491
-0.00146204
-0.00142421
-0.0015229
-0.0014244
-0.00150242
-0.0015948
-0.00164107
-0.00175533
-0.00170934
-0.00174398
-0.00165347
-0.0015622
-0.00166325
-0.0014478
-0.00141536
-0.0014448
-0.00132999
-0.00139982
-0.00126665
-0.00135028
-0.00145867
-0.00144717
-0.00147031
-0.00146675
-0.00149957
-0.00156307
-0.00162837
-0.0016941
-0.00170115
-0.00162148
-0.00143364
-0.00189456
-0.0016962
-0.00166035
-0.00159842
-0.00151251
-0.00157151
-0.00119548
-0.00108595
-0.00128112
-0.00135656
-0.00140942
-0.00147432
-0.00146085
-0.00149632
-0.00159403
-0.00160174
-0.00165675
-0.0017225
-0.00187247
-0.00179527
-0.00163358
-0.00144272
-0.00144443
-0.0014906
-0.00126036
-0.00104053
-0.000854581
-0.000815416
-0.00103474
-0.00127392
-0.00132782
-0.00137952
-0.00136295
-0.00143219
-0.00160667
-0.00167135
-0.00180511
-0.00197422
-0.00198501
-0.00185267
-0.00130604
-0.00134654
-0.00153648
-0.00140945
-0.00166468
-0.0014187
-0.000434933
-0.000535769
-0.000776673
-0.0010898
-0.00130913
-0.00143473
-0.00149541
-0.00150684
-0.00158499
-0.00167994
-0.00177583
-0.00175348
-0.00161116
-0.00144502
-0.00133639
-0.00135884
-0.00145962
-0.00141695
-0.00107133
-0.000402532
0.00153117
)
;

boundaryField
{
    movingWall
    {
        type            zeroGradient;
    }
    fixedWalls
    {
        type            zeroGradient;
    }
    frontAndBack
    {
        type            empty;
    }
}


// ************************************************************************* //
