/*--------------------------------*- C++ -*----------------------------------*\
| =========                 |                                                 |
| \\      /  F ield         | OpenFOAM: The Open Source CFD Toolbox           |
|  \\    /   O peration     | Version:  5.x                                   |
|   \\  /    A nd           | Web:      www.OpenFOAM.org                      |
|    \\/     M anipulation  |                                                 |
\*---------------------------------------------------------------------------*/
FoamFile
{
    version     2.0;
    format      ascii;
    class       surfaceScalarField;
    location    "16.4";
    object      phi;
}
// * * * * * * * * * * * * * * * * * * * * * * * * * * * * * * * * * * * * * //

dimensions      [0 3 -1 0 0 0 0];

internalField   nonuniform List<scalar> 
760
(
-1.16996e-06
1.16996e-06
-2.03211e-06
8.62147e-07
-2.4391e-06
4.06988e-07
-2.71259e-06
2.73498e-07
-2.80384e-06
9.12461e-08
-2.89677e-06
9.29355e-08
-2.89516e-06
-1.61987e-09
-2.93145e-06
3.62911e-08
-2.90382e-06
-2.763e-08
-2.92995e-06
2.61377e-08
-2.92558e-06
-4.37339e-09
-2.94247e-06
1.68907e-08
-2.9494e-06
6.9239e-09
-2.94604e-06
-3.35835e-09
-2.94829e-06
2.25181e-09
-2.90271e-06
-4.55817e-08
-2.82397e-06
-7.8735e-08
-2.4178e-06
-4.0617e-07
-1.61185e-06
-8.05954e-07
-1.61185e-06
-6.54638e-07
1.8246e-06
-1.03121e-06
1.23872e-06
-1.1804e-06
5.56172e-07
-1.20844e-06
3.0154e-07
-1.22487e-06
1.07674e-07
-1.24157e-06
1.09637e-07
-1.26183e-06
1.86383e-08
-1.26259e-06
3.70592e-08
-1.27773e-06
-1.24995e-08
-1.2655e-06
1.39124e-08
-1.26857e-06
-1.29933e-09
-1.28205e-06
3.03644e-08
-1.3286e-06
5.34792e-08
-1.35616e-06
2.41972e-08
-1.39562e-06
4.17125e-08
-1.36369e-06
-7.75076e-08
-1.37509e-06
-6.73347e-08
-1.44932e-06
-3.31943e-07
-1.16926e-06
-1.08601e-06
-2.78111e-06
-3.12164e-07
2.13676e-06
-4.22571e-07
1.34913e-06
-3.7548e-07
5.0908e-07
-3.26023e-07
2.52084e-07
-3.30542e-07
1.12193e-07
-3.27826e-07
1.0692e-07
-3.67322e-07
5.8134e-08
-4.10795e-07
8.05323e-08
-4.68844e-07
4.55501e-08
-5.26872e-07
7.19401e-08
-5.83186e-07
5.50144e-08
-6.04915e-07
5.20939e-08
-6.16697e-07
6.52609e-08
-6.15226e-07
2.27262e-08
-5.52791e-07
-2.07221e-08
-5.16541e-07
-1.13758e-07
-2.86467e-07
-2.97409e-07
-1.80472e-07
-4.37938e-07
-3.38394e-07
-9.28089e-07
-3.11951e-06
-1.17849e-07
2.25461e-06
-1.24198e-07
1.35548e-06
-4.19628e-08
4.26844e-07
-2.05068e-08
2.30628e-07
-5.65707e-08
1.48257e-07
-9.37094e-08
1.44059e-07
-1.48073e-07
1.12498e-07
-1.86375e-07
1.18834e-07
-2.33893e-07
9.30688e-08
-2.70139e-07
1.08186e-07
-2.8844e-07
7.33154e-08
-3.0589e-07
6.95431e-08
-2.58453e-07
1.78239e-08
-2.67078e-07
3.13517e-08
-2.68392e-07
-1.94083e-08
-3.4204e-07
-4.01098e-08
-4.03727e-07
-2.35722e-07
-2.67746e-07
-5.73918e-07
-2.12982e-07
-9.82854e-07
-3.33249e-06
-2.95485e-08
2.28416e-06
5.76794e-09
1.32016e-06
4.08823e-08
3.9173e-07
5.24617e-08
2.19048e-07
1.24416e-08
1.88277e-07
-3.444e-08
1.9094e-07
-7.44408e-08
1.52499e-07
-1.11182e-07
1.55575e-07
-1.3419e-07
1.16077e-07
-1.36968e-07
1.10964e-07
-1.49858e-07
8.62048e-08
-1.76816e-07
9.65019e-08
-1.49481e-07
-9.51195e-09
-2.24375e-07
1.06246e-07
-2.87468e-07
4.36844e-08
-2.5997e-07
-6.76081e-08
-1.64204e-07
-3.31487e-07
2.53822e-08
-7.63504e-07
2.73165e-08
-9.84788e-07
-3.30517e-06
-1.62491e-08
2.30041e-06
6.64437e-09
1.29727e-06
2.15312e-08
3.76843e-07
-2.10607e-08
2.6164e-07
-6.03518e-08
2.27568e-07
-8.81506e-08
2.18739e-07
-1.17971e-07
1.82319e-07
-1.45757e-07
1.8336e-07
-1.66632e-07
1.36952e-07
-1.52215e-07
9.65478e-08
-1.55817e-07
8.98067e-08
-2.12778e-07
1.53463e-07
-1.35298e-07
-8.69926e-08
-1.47989e-07
1.18938e-07
-1.33565e-07
2.92597e-08
-1.13958e-07
-8.72151e-08
-2.10757e-07
-2.34688e-07
-1.32114e-07
-8.42148e-07
-5.11199e-08
-1.06578e-06
-3.35629e-06
1.49197e-08
2.28549e-06
5.74533e-08
1.25474e-06
3.98868e-08
3.9441e-07
2.11058e-08
2.80421e-07
1.29974e-08
2.35676e-07
-3.17654e-08
2.63502e-07
-8.45313e-08
2.35085e-07
-8.6335e-08
1.85164e-07
-4.39152e-08
9.45327e-08
-8.91842e-08
1.41817e-07
-1.50417e-07
1.51039e-07
-1.62986e-07
1.66032e-07
-4.05244e-08
-2.09454e-07
-1.15948e-07
1.94361e-07
-9.1447e-08
4.75918e-09
-4.09191e-08
-1.37743e-07
-6.06011e-08
-2.15006e-07
1.37116e-08
-9.1646e-07
3.21288e-08
-1.0842e-06
-3.32416e-06
2.06587e-09
2.28342e-06
1.27488e-09
1.25553e-06
1.182e-08
3.83864e-07
-2.85099e-08
3.20751e-07
-6.88544e-08
2.76021e-07
-7.43237e-08
2.68971e-07
-1.0216e-07
2.62921e-07
-7.53902e-08
1.58394e-07
-2.72819e-08
4.64244e-08
-1.40994e-07
2.55529e-07
-4.12378e-07
4.22423e-07
-4.42172e-07
1.95827e-07
-1.86799e-07
-4.64828e-07
-2.12122e-07
2.19685e-07
-2.97353e-07
8.99897e-08
-2.14359e-07
-2.20737e-07
-2.48326e-08
-4.04532e-07
-6.91443e-08
-8.72149e-07
-6.63592e-08
-1.08698e-06
-3.39052e-06
3.58588e-08
2.24757e-06
6.23353e-08
1.22905e-06
7.56212e-09
4.38638e-07
-6.21557e-09
3.34529e-07
-3.91792e-08
3.08985e-07
-1.63493e-09
2.31427e-07
7.84601e-08
1.82826e-07
6.92805e-08
1.67574e-07
-1.00253e-07
2.15958e-07
-2.69044e-07
4.2432e-07
-3.49508e-07
5.02886e-07
-2.59965e-07
1.06283e-07
2.46375e-08
-7.4943e-07
-8.94866e-08
3.33809e-07
-1.30455e-07
1.30959e-07
-8.79705e-08
-2.63222e-07
-9.02272e-08
-4.02276e-07
-5.49156e-08
-9.0746e-07
4.53866e-08
-1.18729e-06
-3.34513e-06
2.74556e-08
2.22011e-06
2.11742e-08
1.23533e-06
6.58726e-08
3.93939e-07
5.03659e-08
3.50035e-07
-7.1289e-08
4.30639e-07
-1.0105e-07
2.61188e-07
-8.51471e-08
1.66923e-07
-2.26624e-07
3.0905e-07
-4.83817e-07
4.73151e-07
-6.49277e-07
5.89781e-07
-6.84783e-07
5.38392e-07
-4.57975e-07
-1.20524e-07
-2.28642e-07
-9.78763e-07
-1.99296e-07
3.04463e-07
-9.14658e-08
2.31279e-08
-1.75837e-07
-1.7885e-07
-2.94348e-07
-2.83765e-07
-2.89638e-07
-9.1217e-07
-4.14469e-08
-1.43548e-06
-3.38658e-06
3.64632e-09
2.21646e-06
1.27138e-09
1.23771e-06
-5.25472e-08
4.47758e-07
-1.63314e-07
4.60802e-07
-2.77122e-07
5.44447e-07
-3.00743e-07
2.84809e-07
-4.01447e-07
2.67627e-07
-4.29104e-07
3.36707e-07
-4.12805e-07
4.56852e-07
-3.1086e-07
4.87836e-07
-3.32878e-07
5.6041e-07
-3.68118e-07
-8.52851e-08
-1.60811e-07
-1.18607e-06
1.42629e-07
1.02307e-09
2.03897e-07
-3.81401e-08
1.22029e-07
-9.69822e-08
-1.07074e-07
-5.46622e-08
-1.66425e-07
-8.52819e-07
-5.54197e-08
-1.54648e-06
-3.442e-06
3.89251e-08
2.17754e-06
5.66404e-08
1.21999e-06
-8.62663e-08
5.90665e-07
-2.6647e-07
6.41005e-07
-2.91736e-07
5.69713e-07
-3.86426e-07
3.79499e-07
-6.44996e-07
5.26197e-07
-7.14206e-07
4.05918e-07
-6.92525e-07
4.35171e-07
-4.59027e-07
2.54339e-07
-1.09605e-07
2.10988e-07
-1.67125e-07
-2.77653e-08
-2.53985e-07
-1.09921e-06
-7.14919e-08
-1.8147e-07
1.96203e-07
-3.05835e-07
4.38434e-07
-3.39213e-07
4.70946e-07
-8.71749e-08
3.30697e-07
-7.1257e-07
6.12679e-08
-1.27705e-06
-3.38073e-06
-8.0471e-09
2.18559e-06
-9.16323e-09
1.22111e-06
-5.90847e-08
6.40586e-07
2.32113e-08
5.58709e-07
1.13972e-07
4.78952e-07
2.26513e-08
4.7082e-07
-1.72595e-07
7.21444e-07
-3.55527e-07
5.8885e-07
-4.3789e-07
5.17533e-07
-3.12922e-07
1.29371e-07
-8.74252e-08
-1.45088e-08
3.5613e-08
-1.50803e-07
-8.58459e-08
-9.7775e-07
-4.67724e-08
-2.20544e-07
5.96132e-08
-4.12221e-07
-6.99576e-08
-2.09642e-07
1.4582e-07
-3.02952e-07
1.66044e-07
-7.32794e-07
2.85931e-08
-1.1396e-06
-3.35214e-06
7.79178e-09
2.17779e-06
6.67643e-09
1.22222e-06
7.90561e-08
5.68206e-07
2.33346e-07
4.04419e-07
2.54074e-07
4.58224e-07
4.25497e-07
2.99398e-07
4.15256e-07
7.31685e-07
3.70415e-07
6.3369e-07
3.22121e-07
5.65828e-07
3.45059e-07
1.06432e-07
4.194e-07
-8.88494e-08
3.6876e-07
-1.00164e-07
1.42503e-07
-7.51493e-07
1.9826e-07
-2.76302e-07
1.45523e-07
-3.59483e-07
-7.36115e-08
9.4919e-09
3.18828e-07
-6.95392e-07
2.98875e-07
-7.12841e-07
1.06148e-07
-9.46876e-07
-3.24599e-06
3.93755e-08
2.13842e-06
2.20428e-08
1.23956e-06
5.24922e-08
5.37757e-07
2.50904e-07
2.06008e-07
3.54842e-07
3.54286e-07
5.13628e-07
1.40611e-07
8.33866e-07
4.11446e-07
1.09934e-06
3.68213e-07
1.13583e-06
5.29346e-07
1.15183e-06
9.04323e-08
1.19738e-06
-1.34404e-07
1.01705e-06
8.01701e-08
1.00121e-06
-7.35653e-07
1.17575e-06
-4.50841e-07
1.15125e-06
-3.34988e-07
1.18359e-06
-2.28466e-08
7.71037e-07
-2.82839e-07
2.02521e-07
-1.44325e-07
1.60535e-08
-7.60408e-07
-3.22994e-06
8.69319e-08
2.05149e-06
1.4943e-07
1.17706e-06
1.53283e-07
5.33904e-07
-8.72189e-09
3.68013e-07
2.77973e-07
6.75917e-08
4.53229e-07
-3.46444e-08
8.48707e-07
1.59675e-08
1.22769e-06
-1.07703e-08
1.34538e-06
4.11652e-07
1.36027e-06
7.55423e-08
1.33929e-06
-1.13415e-07
1.33273e-06
8.6726e-08
1.03914e-06
-4.42058e-07
8.98721e-07
-3.10427e-07
5.73618e-07
-9.88446e-09
3.97212e-08
5.1105e-07
-1.54261e-07
-8.88576e-08
-5.64487e-08
-2.42137e-07
5.44632e-08
-8.7132e-07
-3.17548e-06
1.56657e-07
1.89483e-06
1.37644e-07
1.19607e-06
2.57853e-07
4.13695e-07
3.54219e-07
2.71647e-07
3.16505e-07
1.05306e-07
5.10285e-07
-2.28425e-07
7.80184e-07
-2.53931e-07
9.23002e-07
-1.53588e-07
1.1655e-06
1.69158e-07
1.28377e-06
-4.27351e-08
1.18371e-06
-1.33544e-08
1.02616e-06
2.4428e-07
2.49959e-08
5.59105e-07
-5.61067e-07
2.75636e-07
-1.80817e-07
-3.90135e-07
-7.84236e-08
4.08657e-07
4.96572e-07
-6.63854e-07
4.98867e-07
-2.44432e-07
8.90147e-08
-4.61468e-07
-3.08646e-06
3.64539e-07
1.53029e-06
5.84397e-07
9.76212e-07
4.77936e-07
5.20156e-07
6.566e-07
9.29827e-08
7.3756e-07
2.43457e-08
7.24709e-07
-2.15574e-07
7.87498e-07
-3.1672e-07
8.03777e-07
-1.69867e-07
9.95283e-07
-2.23477e-08
1.12521e-06
-1.7266e-07
1.21635e-06
-1.04499e-07
1.40796e-06
5.26675e-08
1.47143e-06
4.95643e-07
1.09572e-06
6.51339e-07
8.92902e-07
-1.87313e-07
1.00595e-06
2.95608e-07
7.04092e-07
-3.61995e-07
1.60983e-07
2.98677e-07
3.80277e-07
-6.80762e-07
-2.70618e-06
4.74683e-07
1.05561e-06
7.86921e-07
6.63973e-07
9.26853e-07
3.80224e-07
7.58375e-07
2.61461e-07
6.00555e-07
1.82166e-07
2.87477e-07
9.75049e-08
-1.82755e-07
1.53512e-07
-4.89693e-07
1.37071e-07
-6.28724e-07
1.16683e-07
-8.39488e-07
3.81034e-08
-9.43991e-07
4.42834e-12
-8.74396e-07
-1.69274e-08
-4.19981e-07
4.12277e-08
1.78448e-07
5.29101e-08
-1.66621e-07
1.57756e-07
7.19998e-08
5.69873e-08
-2.34724e-07
-5.52707e-08
1.5753e-07
-9.3577e-08
7.6034e-07
-1.28357e-06
-1.94584e-06
1.05561e-06
1.71958e-06
2.09981e-06
2.36127e-06
2.54343e-06
2.64094e-06
2.79445e-06
2.93152e-06
3.0482e-06
3.08631e-06
3.08631e-06
3.06938e-06
3.11061e-06
3.16352e-06
3.32128e-06
3.37826e-06
3.32299e-06
3.22942e-06
1.94584e-06
)
;

boundaryField
{
    movingWall
    {
        type            calculated;
        value           uniform 0;
    }
    fixedWalls
    {
        type            calculated;
        value           uniform 0;
    }
    frontAndBack
    {
        type            empty;
        value           nonuniform 0();
    }
}


// ************************************************************************* //
