/*--------------------------------*- C++ -*----------------------------------*\
| =========                 |                                                 |
| \\      /  F ield         | OpenFOAM: The Open Source CFD Toolbox           |
|  \\    /   O peration     | Version:  5.x                                   |
|   \\  /    A nd           | Web:      www.OpenFOAM.org                      |
|    \\/     M anipulation  |                                                 |
\*---------------------------------------------------------------------------*/
FoamFile
{
    version     2.0;
    format      ascii;
    class       surfaceScalarField;
    location    "12.4";
    object      phi;
}
// * * * * * * * * * * * * * * * * * * * * * * * * * * * * * * * * * * * * * //

dimensions      [0 3 -1 0 0 0 0];

internalField   nonuniform List<scalar> 
760
(
-1.03967e-06
1.03967e-06
-1.77296e-06
7.3329e-07
-2.0786e-06
3.05641e-07
-2.28195e-06
2.03352e-07
-2.31215e-06
3.01972e-08
-2.36854e-06
5.63934e-08
-2.36107e-06
-7.47156e-09
-2.41771e-06
5.6645e-08
-2.41554e-06
-2.17211e-09
-2.42883e-06
1.32873e-08
-2.44427e-06
1.5441e-08
-2.42545e-06
-1.88229e-08
-2.42021e-06
-5.23711e-09
-2.39614e-06
-2.40703e-08
-2.41519e-06
1.90498e-08
-2.35808e-06
-5.7113e-08
-2.26688e-06
-9.11965e-08
-1.89321e-06
-3.73667e-07
-1.20901e-06
-6.84206e-07
-1.20901e-06
-5.37652e-07
1.57732e-06
-9.50875e-07
1.14651e-06
-1.03314e-06
3.8791e-07
-1.07272e-06
2.42928e-07
-1.08092e-06
3.84008e-08
-1.05782e-06
3.32924e-08
-1.05151e-06
-1.37893e-08
-1.00751e-06
1.26539e-08
-9.92099e-07
-1.75871e-08
-9.67426e-07
-1.13855e-08
-9.59283e-07
7.2979e-09
-9.44575e-07
-3.35309e-08
-9.68521e-07
1.87082e-08
-9.77999e-07
-1.45915e-08
-1.03461e-06
7.56618e-08
-1.04239e-06
-4.93341e-08
-1.02968e-06
-1.03907e-07
-1.03858e-06
-3.64766e-07
-9.57156e-07
-7.65631e-07
-2.16616e-06
-3.80125e-07
1.95744e-06
-4.12269e-07
1.17866e-06
-3.94258e-07
3.69899e-07
-3.563e-07
2.04969e-07
-3.26648e-07
8.74929e-09
-3.20333e-07
2.69777e-08
-2.90491e-07
-4.36318e-08
-2.86749e-07
8.91194e-09
-2.58077e-07
-4.62584e-08
-2.51843e-07
-1.76195e-08
-2.2648e-07
-1.80656e-08
-2.3836e-07
-2.16506e-08
-2.42602e-07
2.29498e-08
-2.78996e-07
2.1803e-08
-2.95919e-07
9.25843e-08
-2.99273e-07
-4.59796e-08
-2.27636e-07
-1.75544e-07
-1.18695e-07
-4.73708e-07
-2.03383e-07
-6.80943e-07
-2.36954e-06
-1.48481e-07
2.10592e-06
-1.72321e-07
1.2025e-06
-1.53865e-07
3.51443e-07
-1.29074e-07
1.80179e-07
-1.71869e-07
5.15447e-08
-1.90985e-07
4.60935e-08
-2.18351e-07
-1.62661e-08
-2.27768e-07
1.83296e-08
-2.38524e-07
-3.55029e-08
-2.39451e-07
-1.66923e-08
-2.372e-07
-2.03172e-08
-2.39436e-07
-1.94146e-08
-2.29902e-07
1.34166e-08
-1.88483e-07
-1.96164e-08
-1.47757e-07
5.18583e-08
-3.41713e-08
-1.59565e-07
-8.88574e-08
-1.20858e-07
-2.56211e-07
-3.06354e-07
-2.23186e-07
-7.13967e-07
-2.59273e-06
-6.59516e-08
2.17188e-06
-3.85456e-08
1.17509e-06
-2.2153e-08
3.3505e-07
-7.26847e-08
2.3071e-07
-1.56427e-07
1.35287e-07
-2.04935e-07
9.46015e-08
-2.36794e-07
1.55935e-08
-2.35558e-07
1.70932e-08
-2.16777e-07
-5.42838e-08
-2.01652e-07
-3.18169e-08
-1.62563e-07
-5.94064e-08
-1.25536e-07
-5.64416e-08
-7.41284e-08
-3.79911e-08
-1.26272e-08
-8.11177e-08
4.75549e-08
-8.32378e-09
1.12436e-07
-2.24446e-07
1.02151e-07
-1.10573e-07
8.88721e-08
-2.93075e-07
4.72414e-08
-6.72336e-07
-2.54549e-06
-6.36441e-08
2.23552e-06
-5.12925e-08
1.16274e-06
-9.10658e-08
3.74823e-07
-1.32247e-07
2.71892e-07
-2.01997e-07
2.05036e-07
-2.41127e-07
1.33732e-07
-2.67552e-07
4.20178e-08
-2.66595e-07
1.61368e-08
-2.4712e-07
-7.37592e-08
-2.33965e-07
-4.49722e-08
-2.04881e-07
-8.849e-08
-1.75606e-07
-8.57167e-08
-1.51684e-07
-6.19128e-08
-1.09495e-07
-1.23307e-07
-9.65063e-08
-2.13127e-08
-1.21877e-07
-1.99075e-07
-6.01172e-08
-1.72334e-07
-3.933e-08
-3.13862e-07
-7.41261e-08
-6.3754e-07
-2.61962e-06
-3.3728e-08
2.26925e-06
-7.27039e-08
1.20172e-06
-1.32185e-07
4.34305e-07
-1.665e-07
3.06207e-07
-2.39214e-07
2.7775e-07
-2.95709e-07
1.90227e-07
-3.1578e-07
6.20891e-08
-3.03013e-07
3.36983e-09
-2.53057e-07
-1.23716e-07
-2.31181e-07
-6.68479e-08
-1.68921e-07
-1.5075e-07
-1.26649e-07
-1.27989e-07
-6.03158e-08
-1.28246e-07
-3.45379e-09
-1.80169e-07
5.10489e-08
-7.58154e-08
1.2538e-07
-2.73407e-07
9.9632e-08
-1.46585e-07
8.23884e-08
-2.96619e-07
3.94534e-08
-5.94605e-07
-2.58016e-06
-1.55449e-08
2.28479e-06
1.42983e-08
1.17187e-06
-6.90939e-08
5.17697e-07
-2.33401e-07
4.70514e-07
-3.35041e-07
3.79391e-07
-3.88837e-07
2.44023e-07
-4.00915e-07
7.41665e-08
-3.81282e-07
-1.62627e-08
-3.09638e-07
-1.9536e-07
-2.91223e-07
-8.5262e-08
-2.34538e-07
-2.07436e-07
-1.98844e-07
-1.63683e-07
-1.59331e-07
-1.67759e-07
-1.55878e-07
-1.83622e-07
-9.08044e-08
-1.40889e-07
-7.58316e-08
-2.88379e-07
-8.02277e-08
-1.42189e-07
-1.12155e-08
-3.65631e-07
-3.98627e-09
-6.01835e-07
-2.58415e-06
2.71964e-08
2.2576e-06
1.19611e-08
1.18711e-06
-1.77917e-07
7.07575e-07
-2.97379e-07
5.89975e-07
-4.16175e-07
4.98187e-07
-5.05967e-07
3.33816e-07
-4.90522e-07
5.87209e-08
-3.84635e-07
-1.22149e-07
-2.96415e-07
-2.8358e-07
-2.99596e-07
-8.20812e-08
-1.8917e-07
-3.17862e-07
-1.61919e-07
-1.90934e-07
-1.10793e-07
-2.18884e-07
-1.16201e-07
-1.78214e-07
3.6196e-09
-2.6071e-07
1.16753e-07
-4.01512e-07
8.34009e-08
-1.08838e-07
5.88174e-08
-3.41048e-07
-1.42797e-08
-5.28737e-07
-2.59843e-06
-4.55318e-08
2.30313e-06
-4.1863e-08
1.18344e-06
-1.54349e-07
8.20061e-07
-4.37175e-07
8.72802e-07
-7.1142e-07
7.72431e-07
-8.0478e-07
4.27176e-07
-7.48828e-07
2.7686e-09
-5.06819e-07
-3.64159e-07
-3.82316e-07
-4.08083e-07
-3.34678e-07
-1.29719e-07
-2.1054e-07
-4.42e-07
-1.90142e-07
-2.11331e-07
-1.72099e-07
-2.36928e-07
-2.22467e-07
-1.27846e-07
-1.6163e-07
-3.21547e-07
-1.59361e-07
-4.03781e-07
-1.21305e-07
-1.46894e-07
-1.08559e-08
-4.51497e-07
1.83772e-08
-5.57971e-07
-2.58005e-06
5.72836e-08
2.24584e-06
-7.96335e-08
1.32036e-06
-3.22025e-07
1.06245e-06
-6.35004e-07
1.18578e-06
-8.86089e-07
1.02352e-06
-9.99669e-07
5.40755e-07
-9.58491e-07
-3.84091e-08
-7.57103e-07
-5.65546e-07
-4.81621e-07
-6.83566e-07
-2.08034e-07
-4.03306e-07
-5.55434e-08
-5.9449e-07
-7.9891e-08
-1.86984e-07
-1.34114e-07
-1.82705e-07
-2.25431e-07
-3.6529e-08
-1.95162e-07
-3.51816e-07
-2.34188e-07
-3.64754e-07
-7.48558e-08
-3.06226e-07
4.53636e-08
-5.71716e-07
-2.77325e-08
-4.84874e-07
-2.60778e-06
2.03493e-08
2.22549e-06
-4.85689e-08
1.38927e-06
-3.10873e-07
1.32476e-06
-5.92151e-07
1.46706e-06
-7.42132e-07
1.1735e-06
-8.65359e-07
6.63983e-07
-8.7622e-07
-2.75487e-08
-7.74767e-07
-6.66999e-07
-4.8786e-07
-9.70473e-07
-1.05536e-07
-7.8563e-07
4.05755e-08
-7.40602e-07
1.29336e-08
-1.59342e-07
-1.32694e-08
-1.56502e-07
-9.45016e-08
4.47033e-08
-1.83095e-07
-2.63223e-07
-2.00535e-07
-3.47315e-07
-2.12493e-07
-2.94268e-07
-2.38125e-07
-5.46084e-07
1.29015e-08
-7.359e-07
-2.59488e-06
-2.91319e-08
2.25463e-06
-8.03808e-08
1.44052e-06
-2.04564e-07
1.44894e-06
-2.04107e-07
1.4666e-06
-2.37608e-07
1.207e-06
-2.45622e-07
6.71996e-07
-1.76212e-07
-9.69581e-08
-7.71313e-08
-7.6608e-07
4.40871e-08
-1.09169e-06
1.69718e-07
-9.11261e-07
2.95801e-07
-8.66685e-07
4.10407e-07
-2.73948e-07
4.51955e-07
-1.9805e-07
4.92716e-07
3.94234e-09
4.20418e-07
-1.90925e-07
2.98009e-07
-2.24905e-07
1.17378e-07
-1.13638e-07
-6.75076e-08
-3.61199e-07
-3.96613e-08
-7.63747e-07
-2.63454e-06
1.02685e-07
2.15194e-06
1.50137e-07
1.39307e-06
1.98343e-07
1.40073e-06
2.77617e-07
1.38733e-06
3.89142e-07
1.09547e-06
5.43595e-07
5.17543e-07
4.91516e-07
-4.4879e-08
5.32228e-07
-8.06791e-07
6.54493e-07
-1.21396e-06
6.65482e-07
-9.22251e-07
2.44171e-07
-4.45374e-07
1.50039e-07
-1.79816e-07
1.49548e-07
-1.9756e-07
2.51579e-07
-9.80889e-08
4.23715e-07
-3.6306e-07
2.65192e-07
-6.6382e-08
2.23959e-07
-7.24052e-08
1.6028e-07
-2.9752e-07
1.12339e-07
-7.15805e-07
-2.5222e-06
2.27095e-07
1.92485e-06
3.34335e-07
1.28583e-06
4.8727e-07
1.2478e-06
6.72478e-07
1.20212e-06
9.19468e-07
8.48483e-07
1.03327e-06
4.0374e-07
1.09747e-06
-1.09077e-07
1.13578e-06
-8.45107e-07
9.89998e-07
-1.06817e-06
9.55803e-07
-8.88056e-07
6.88003e-07
-1.77574e-07
3.35925e-07
1.72262e-07
1.02912e-07
3.54534e-08
-1.62405e-07
1.67228e-07
-3.7008e-08
-4.88457e-07
-3.42e-08
-6.919e-08
2.61272e-07
-3.67877e-07
3.03525e-07
-3.39772e-07
-1.97169e-08
-3.92563e-07
-2.54192e-06
3.10952e-07
1.61389e-06
5.11951e-07
1.08483e-06
7.49405e-07
1.01034e-06
8.73616e-07
1.07791e-06
1.18231e-06
5.39789e-07
1.31103e-06
2.75019e-07
1.45164e-06
-2.49682e-07
1.40053e-06
-7.93995e-07
1.05393e-06
-7.21579e-07
7.35169e-07
-5.6929e-07
1.01669e-06
-4.59094e-07
1.37233e-06
-1.83379e-07
1.5268e-06
-1.19019e-07
1.43882e-06
2.55215e-07
8.11167e-07
1.39193e-07
2.80804e-07
4.61172e-07
1.2412e-07
-2.11193e-07
7.83226e-09
-2.23485e-07
1.02045e-07
-4.86776e-07
-2.43988e-06
6.66884e-07
9.47009e-07
9.43447e-07
8.08271e-07
9.85048e-07
9.68743e-07
1.19175e-06
8.71205e-07
1.31509e-06
4.1645e-07
1.56459e-06
2.55165e-08
1.54774e-06
-2.3283e-07
9.46835e-07
-1.93087e-07
2.96773e-07
-7.15175e-08
-1.03686e-07
-1.68831e-07
-2.99121e-07
-2.6366e-07
-1.2936e-07
-3.5314e-07
-1.77548e-07
-7.08311e-08
-8.12382e-08
1.58905e-07
-3.15647e-08
8.95194e-08
-1.75941e-07
6.05549e-07
4.95335e-08
-4.36667e-07
-6.69598e-08
-1.06992e-07
-1.14661e-07
-4.39075e-07
-2.55454e-06
6.88831e-07
2.58179e-07
1.12512e-06
3.71983e-07
1.34348e-06
7.5038e-07
1.62546e-06
5.89228e-07
1.78986e-06
2.52049e-07
1.85382e-06
-3.84455e-08
1.80887e-06
-1.87881e-07
1.77183e-06
-1.56041e-07
1.77074e-06
-7.04362e-08
1.69077e-06
-8.88541e-08
1.38739e-06
3.97164e-08
1.04629e-06
-1.20334e-08
7.40248e-07
2.35206e-07
5.18507e-07
3.80645e-07
6.93688e-07
-8.56616e-08
7.40475e-07
5.58762e-07
6.73681e-07
-3.69872e-07
4.58912e-07
1.07778e-07
2.93503e-07
-2.73666e-07
-2.26103e-06
-1.74438e-07
4.32617e-07
8.12553e-08
1.1629e-07
3.85087e-07
4.46548e-07
5.11769e-07
4.62546e-07
4.11459e-07
3.52359e-07
1.07797e-07
2.65217e-07
-2.04527e-07
1.24443e-07
-3.69242e-07
8.67327e-09
-4.55611e-07
1.59328e-08
-5.81237e-07
3.67717e-08
-5.98645e-07
5.71248e-08
-6.495e-07
3.88214e-08
-4.31734e-07
1.74397e-08
-1.37523e-07
8.6435e-08
-3.05081e-07
8.18956e-08
1.08358e-07
1.45323e-07
-2.48064e-07
-1.34506e-08
1.22775e-08
-1.52564e-07
7.40701e-07
-1.00209e-06
-1.52033e-06
4.32617e-07
5.48907e-07
9.95455e-07
1.458e-06
1.81036e-06
2.07558e-06
2.20002e-06
2.20869e-06
2.22463e-06
2.2614e-06
2.31852e-06
2.35734e-06
2.37478e-06
2.46122e-06
2.54311e-06
2.68844e-06
2.67499e-06
2.52242e-06
1.52033e-06
)
;

boundaryField
{
    movingWall
    {
        type            calculated;
        value           uniform 0;
    }
    fixedWalls
    {
        type            calculated;
        value           uniform 0;
    }
    frontAndBack
    {
        type            empty;
        value           nonuniform 0();
    }
}


// ************************************************************************* //
