/*--------------------------------*- C++ -*----------------------------------*\
| =========                 |                                                 |
| \\      /  F ield         | OpenFOAM: The Open Source CFD Toolbox           |
|  \\    /   O peration     | Version:  5.x                                   |
|   \\  /    A nd           | Web:      www.OpenFOAM.org                      |
|    \\/     M anipulation  |                                                 |
\*---------------------------------------------------------------------------*/
FoamFile
{
    version     2.0;
    format      ascii;
    class       volVectorField;
    location    "12.4";
    object      U;
}
// * * * * * * * * * * * * * * * * * * * * * * * * * * * * * * * * * * * * * //

dimensions      [0 1 -1 0 0 0 0];

internalField   nonuniform List<vector> 
400
(
(-0.0117273 0.00758877 0)
(-0.0333284 0.00468746 0)
(-0.0378738 0.00233982 0)
(-0.0454761 0.000548553 0)
(-0.0439157 -0.00116613 0)
(-0.048201 0.000219104 0)
(-0.0453468 -0.00162546 0)
(-0.049122 0.00118913 0)
(-0.0470041 -0.00156379 0)
(-0.0498017 -0.000288956 0)
(-0.0475485 -0.00100116 0)
(-0.0498929 -0.00113135 0)
(-0.0476133 -0.00115001 0)
(-0.0478705 -0.000289792 0)
(-0.0499198 -2.66466e-05 0)
(-0.0481831 -0.00125898 0)
(-0.0476044 -0.00244226 0)
(-0.0397727 -0.00629211 0)
(-0.0416776 -0.00870008 0)
(-0.000281728 -0.0138424 0)
(-0.00379847 0.0302504 0)
(-0.0200388 0.0218025 0)
(-0.0166955 0.00847181 0)
(-0.0248985 0.00663007 0)
(-0.0166934 0.00215556 0)
(-0.0262304 0.00179262 0)
(-0.0163842 0.00127626 0)
(-0.024695 0.00117512 0)
(-0.0169488 0.00143683 0)
(-0.0213162 0.000913351 0)
(-0.0186625 0.00152505 0)
(-0.0186745 0.000456112 0)
(-0.0200309 0.000914297 0)
(-0.0174715 -0.000623166 0)
(-0.0227861 0.000679963 0)
(-0.0181915 -0.00141685 0)
(-0.0250448 -0.00203588 0)
(-0.014118 -0.0107748 0)
(-0.0311562 -0.0220811 0)
(-0.00225659 -0.0395138 0)
(-0.00593495 0.0342419 0)
(-0.0109936 0.0252045 0)
(-0.00455944 0.00771308 0)
(-0.0107896 0.00372864 0)
(-0.00377567 -0.0005446 0)
(-0.00871775 -0.000313845 0)
(-0.0045612 -0.00182835 0)
(-0.00658421 -0.000706791 0)
(-0.00541339 -0.00202332 0)
(-0.00437896 -0.00143922 0)
(-0.00622922 -0.00118486 0)
(-0.00233296 -0.00187988 0)
(-0.00770259 -0.000241973 0)
(-0.00141262 -5.80564e-05 0)
(-0.010399 0.00228553 0)
(-0.000947816 -0.000260484 0)
(-0.0116654 -0.00148448 0)
(0.00305605 -0.0024597 0)
(-0.00846904 -0.00576471 0)
(0.00168292 -0.044829 0)
(-0.00270415 0.0448752 0)
(-0.00407392 0.0229411 0)
(-0.00234698 0.00718294 0)
(-0.00342841 0.00438293 0)
(-0.00203135 0.000933603 0)
(-0.00447358 0.00132368 0)
(-0.00351958 6.35488e-05 0)
(-0.00483668 0.00108298 0)
(-0.00467313 0.000165108 0)
(-0.00446615 0.000754427 0)
(-0.00551467 0.000520544 0)
(-0.00354116 0.00104478 0)
(-0.00652543 0.00124816 0)
(-0.00208608 0.00103656 0)
(-0.00598696 0.0015577 0)
(0.000357668 -0.00169216 0)
(-0.00175704 -0.00527433 0)
(-0.00147553 -0.0167589 0)
(-0.00989463 -0.0234752 0)
(0.00219529 -0.0511314 0)
(-0.00212045 0.0397752 0)
(-0.000990895 0.0259221 0)
(-0.000276123 0.00760816 0)
(-0.000697065 0.00307094 0)
(-0.00219161 0.00131703 0)
(-0.00392701 0.000615077 0)
(-0.00450297 -0.000648181 0)
(-0.0046859 -0.000335091 0)
(-0.00507194 -0.00162536 0)
(-0.00321212 -0.00137823 0)
(-0.00527741 -0.00141248 0)
(-0.000798284 -0.00179214 0)
(-0.00461329 -0.000772994 0)
(0.00195798 -0.00190963 0)
(-0.00258216 0.000413443 0)
(0.00465807 -0.00491643 0)
(-0.000417232 0.000129319 0)
(0.00469447 0.00425568 0)
(-0.00138558 -0.00316013 0)
(0.00355489 -0.0494697 0)
(-0.00136299 0.0476537 0)
(-0.00118437 0.0224253 0)
(-0.00102474 0.0054602 0)
(-0.00238485 0.00616469 0)
(-0.00316822 0.00382231 0)
(-0.00462269 0.00306757 0)
(-0.00532129 0.00121605 0)
(-0.00509898 0.000999857 0)
(-0.00582765 -0.000494424 0)
(-0.00378498 5.16559e-05 0)
(-0.0058629 -0.000827358 0)
(-0.00199348 -0.000507332 0)
(-0.00539209 -0.000622084 0)
(-0.000300439 -0.00115226 0)
(-0.00440773 -0.000683214 0)
(0.000870894 -0.00360298 0)
(-0.00618825 -0.00432744 0)
(0.00415689 -0.0153052 0)
(-0.0060559 -0.0248805 0)
(0.00347733 -0.0535789 0)
(-0.0013123 0.0434748 0)
(-0.000221115 0.0230466 0)
(-0.00251172 0.00954946 0)
(-0.00260949 0.00446858 0)
(-0.00417413 0.00467693 0)
(-0.00551381 0.00244 0)
(-0.00648963 0.000575667 0)
(-0.00594066 -0.000303781 0)
(-0.00638596 -0.00241762 0)
(-0.00347903 -0.00179519 0)
(-0.00607222 -0.00287659 0)
(-0.000338275 -0.0029879 0)
(-0.00506072 -0.00202691 0)
(0.00288445 -0.00402486 0)
(-0.00307663 -0.000287616 0)
(0.00529925 -0.0048756 0)
(-0.00056622 -0.00276715 0)
(0.00484826 0.00199877 0)
(-0.00189108 -0.000395788 0)
(0.00371538 -0.049619 0)
(-0.000377966 0.0455647 0)
(-0.000331734 0.0248558 0)
(0.000949206 0.00768298 0)
(-0.00352304 0.00803934 0)
(-0.00617617 0.00615772 0)
(-0.0072034 0.00507072 0)
(-0.00845734 0.00182615 0)
(-0.00748374 0.000420672 0)
(-0.0075605 -0.00242738 0)
(-0.00481298 -0.000803517 0)
(-0.00692832 -0.00293925 0)
(-0.00221077 -0.00199472 0)
(-0.00604985 -0.0028292 0)
(9.73071e-06 -0.00288361 0)
(-0.00666071 -0.00253347 0)
(0.00340822 -0.00539655 0)
(-0.00684482 -0.00284378 0)
(0.00406191 -0.0131272 0)
(-0.00464061 -0.0224147 0)
(0.00453295 -0.0542527 0)
(-0.00113573 0.0471638 0)
(0.00244174 0.0236351 0)
(-0.00208642 0.013695 0)
(-0.00489851 0.0110914 0)
(-0.00700813 0.00956207 0)
(-0.00994772 0.00511403 0)
(-0.0105143 0.00137504 0)
(-0.00871973 -0.000981645 0)
(-0.00655235 -0.00531052 0)
(-0.0054801 -0.00269813 0)
(-0.00631066 -0.00560093 0)
(-0.00108114 -0.00480303 0)
(-0.00572508 -0.0042219 0)
(0.00161806 -0.00473802 0)
(-0.0066002 -0.00337061 0)
(0.00680074 -0.00682324 0)
(-0.00252681 -0.00315295 0)
(0.00630688 -0.00228122 0)
(-0.004394 -0.00295034 0)
(0.00403089 -0.0488635 0)
(-0.00263405 0.0435342 0)
(0.000624709 0.022543 0)
(-0.0020854 0.0143738 0)
(-0.00424296 0.0131458 0)
(-0.0137725 0.0109 0)
(-0.015199 0.00882407 0)
(-0.0169613 0.00117115 0)
(-0.0121726 -0.00353807 0)
(-0.00787451 -0.00565775 0)
(-0.00781877 -0.000546962 0)
(-0.00514782 -0.00682407 0)
(-0.00312048 -0.0024985 0)
(-0.00484351 -0.00409103 0)
(-0.00168403 -0.00202121 0)
(-0.00770653 -0.00661851 0)
(0.00170582 -0.00856429 0)
(-0.00866568 -0.000928102 0)
(0.00439413 -0.010515 0)
(-0.00496748 -0.0168583 0)
(0.0058176 -0.0541147 0)
(0.000412249 0.0465653 0)
(0.0019538 0.0251496 0)
(-0.00486191 0.0180114 0)
(-0.00837681 0.0210246 0)
(-0.0177602 0.0196243 0)
(-0.0187681 0.00872252 0)
(-0.0206498 -0.0010249 0)
(-0.0169088 -0.0105915 0)
(-0.0123734 -0.0107278 0)
(-0.00730091 -0.00477092 0)
(-0.000934767 -0.0114121 0)
(-0.00123804 -0.00635548 0)
(-0.00223425 -0.00595138 0)
(-0.00283813 -0.00351124 0)
(-0.00670029 -0.00667094 0)
(-0.000481503 -0.00821689 0)
(-0.00958096 -0.00540631 0)
(0.00694587 -0.00864705 0)
(-0.00544156 -0.00686622 0)
(0.0045566 -0.04984 0)
(-0.00142178 0.0449303 0)
(0.00227294 0.0281747 0)
(-0.00397213 0.02491 0)
(-0.00886462 0.0263854 0)
(-0.0155101 0.0202035 0)
(-0.0157829 0.0114567 0)
(-0.0181716 -0.000920247 0)
(-0.0161233 -0.0135822 0)
(-0.0131133 -0.0175995 0)
(-0.00675285 -0.0109533 0)
(0.00246722 -0.0113929 0)
(-0.00104968 -0.000670971 0)
(0.00150733 -0.0007642 0)
(-0.00192233 0.0023463 0)
(-0.00241972 -0.00717888 0)
(-0.00406454 -0.00560399 0)
(-0.00452507 -0.0057605 0)
(-0.0036639 -0.0129166 0)
(-0.00589244 -0.0110222 0)
(0.0063067 -0.0544171 0)
(-0.00252727 0.0426045 0)
(0.001142 0.0256796 0)
(-0.00382966 0.0265427 0)
(-0.0051082 0.0297123 0)
(-0.0032604 0.0246795 0)
(-0.00707163 0.0135788 0)
(-0.00350311 -0.000573561 0)
(-0.00283842 -0.0138611 0)
(0.000327853 -0.0222323 0)
(0.00150782 -0.021434 0)
(0.00480415 -0.0193446 0)
(0.0067277 -0.00598847 0)
(0.00967423 -0.00591002 0)
(0.00784475 -0.000995067 0)
(0.0110202 -0.00409271 0)
(0.00716788 -0.00929347 0)
(0.00357258 -0.00742645 0)
(0.00183834 -0.0104705 0)
(-0.0051647 -0.0208897 0)
(0.00401132 -0.0514915 0)
(-0.000110651 0.0464055 0)
(0.0038285 0.0318099 0)
(0.00274104 0.0307286 0)
(0.00492425 0.0306995 0)
(0.00518217 0.0245211 0)
(0.0106784 0.0146395 0)
(0.00952006 -0.00274339 0)
(0.0111988 -0.0170179 0)
(0.0117848 -0.020669 0)
(0.0149095 -0.0142018 0)
(0.0106541 -0.016296 0)
(-0.00130914 -0.0057636 0)
(0.00666818 -0.00268341 0)
(0.000157109 0.00133444 0)
(0.00877742 -0.00253163 0)
(0.00952771 0.00109359 0)
(0.000280127 0.00388795 0)
(0.00915417 -0.0025688 0)
(-0.00303219 -0.00670441 0)
(0.00763693 -0.0513203 0)
(0.00121342 0.0410214 0)
(0.00722012 0.0253296 0)
(0.0070424 0.027047 0)
(0.0115469 0.0246365 0)
(0.0146808 0.0208498 0)
(0.0217712 0.00645412 0)
(0.0172705 0.00072673 0)
(0.0285634 -0.0141931 0)
(0.0190377 -0.0269415 0)
(0.0191822 -0.0223672 0)
(0.0206848 -3.69331e-05 0)
(0.00585524 -0.000181946 0)
(0.00799237 -0.00388281 0)
(-0.00458739 -0.00604881 0)
(-0.00230823 -0.0137128 0)
(0.00147087 -0.00423021 0)
(-0.00347044 -0.00772646 0)
(0.0154759 -0.0108183 0)
(-0.0050783 -0.0249788 0)
(0.00472784 -0.0509269 0)
(0.00300617 0.0367484 0)
(0.00843323 0.0266078 0)
(0.0129963 0.0220832 0)
(0.0166994 0.0244207 0)
(0.0171057 0.0139472 0)
(0.0301991 0.010648 0)
(0.0222659 -0.00421264 0)
(0.036162 -0.0192715 0)
(0.0216955 -0.016932 0)
(0.0209747 -0.0138064 0)
(0.00909652 -0.00772045 0)
(0.0294812 0.00565564 0)
(0.0264226 0.004617 0)
(0.0345745 0.0121232 0)
(0.0237406 -0.00428148 0)
(0.0111318 0.00232336 0)
(-0.00134898 -0.00444189 0)
(0.00705131 -0.000777162 0)
(-0.00696026 0.0118046 0)
(0.0116535 -0.0483479 0)
(0.0010231 0.0304323 0)
(0.0235101 0.0184467 0)
(0.0161001 0.0198335 0)
(0.0224546 0.0186865 0)
(0.0240626 0.00709493 0)
(0.0277216 -0.000322093 0)
(0.0357018 -0.006 0)
(0.0286157 -0.0101713 0)
(0.00856208 -0.00979435 0)
(0.0030622 -0.00897376 0)
(-0.00805677 -0.0124041 0)
(-0.00247788 -0.0121998 0)
(-0.00312332 -0.00853797 0)
(-0.00448497 -0.000811972 0)
(0.00200688 0.0104067 0)
(-0.003783 0.0135005 0)
(-0.00349822 -0.00584366 0)
(0.0061626 -0.00975075 0)
(-0.00986392 -0.0343599 0)
(0.00654805 -0.0536396 0)
(0.00293481 0.00812628 0)
(0.0221633 0.0134492 0)
(0.0250536 0.0178775 0)
(0.0294333 0.0174421 0)
(0.0338244 0.0103806 0)
(0.0381591 0.00157029 0)
(0.0358496 -0.00285761 0)
(0.0363037 0.00143228 0)
(0.0350844 0.00618537 0)
(0.034579 0.00200751 0)
(0.0336682 0.00345678 0)
(0.0236625 -0.000362581 0)
(0.016885 0.00642328 0)
(0.0137624 0.00773181 0)
(0.00750139 -0.00724411 0)
(0.0187224 0.0126268 0)
(0.0100001 -0.0103276 0)
(0.0189573 0.00656886 0)
(-0.00246215 0.0191514 0)
(0.0158811 -0.0441248 0)
(-0.00988707 0.00102895 0)
(0.00165795 -1.53341e-05 0)
(0.0023548 0.0129896 0)
(0.0122897 0.00753542 0)
(0.00788286 0.000893303 0)
(0.00835612 -0.00269034 0)
(-0.00471849 -0.00525051 0)
(-0.00292743 -0.00739539 0)
(-0.0106899 -0.00850304 0)
(-0.00863757 -0.00588081 0)
(-0.0150592 -0.00243235 0)
(-0.00752971 -0.000484714 0)
(-0.0209012 0.000946897 0)
(0.00623236 0.00693458 0)
(-0.0129267 0.00322705 0)
(0.0012173 0.0103214 0)
(0.00408784 -0.00280765 0)
(-0.0163426 -0.0037436 0)
(0.0173076 -0.0317278 0)
(0.0133553 -0.0543676 0)
(0.00327203 0.0160561 0)
(0.0143918 0.00545789 0)
(0.00937408 0.00503118 0)
(0.0278915 0.00925703 0)
(0.0320555 0.0114018 0)
(0.0388884 0.0118089 0)
(0.0431767 0.00980557 0)
(0.0453391 0.00769038 0)
(0.0447874 0.00901696 0)
(0.0441207 0.00778275 0)
(0.0458736 0.0054107 0)
(0.0463591 0.00264823 0)
(0.0486861 0.000271741 0)
(0.0481275 -0.00363922 0)
(0.0494343 0.00070894 0)
(0.0507824 -0.00433105 0)
(0.0527029 0.00193216 0)
(0.0527303 -0.000615498 0)
(0.0444824 -0.00414038 0)
(0.0238698 0.00284714 0)
)
;

boundaryField
{
    movingWall
    {
        type            fixedValue;
        value           uniform (1 0 0);
    }
    fixedWalls
    {
        type            noSlip;
    }
    frontAndBack
    {
        type            empty;
    }
}


// ************************************************************************* //
