/*--------------------------------*- C++ -*----------------------------------*\
| =========                 |                                                 |
| \\      /  F ield         | OpenFOAM: The Open Source CFD Toolbox           |
|  \\    /   O peration     | Version:  5.x                                   |
|   \\  /    A nd           | Web:      www.OpenFOAM.org                      |
|    \\/     M anipulation  |                                                 |
\*---------------------------------------------------------------------------*/
FoamFile
{
    version     2.0;
    format      ascii;
    class       volScalarField;
    location    "7.6";
    object      p;
}
// * * * * * * * * * * * * * * * * * * * * * * * * * * * * * * * * * * * * * //

dimensions      [0 2 -2 0 0 0 0];

internalField   nonuniform List<scalar> 
400
(
-2.45727e-10
-0.000377234
-0.000850275
-0.00131882
-0.00162276
-0.001751
-0.00174219
-0.0015645
-0.00133603
-0.00124902
-0.00117511
-0.00106365
-0.00100328
-0.00101705
-0.0010576
-0.00104416
-0.00097197
-0.000801376
-0.000550812
0.000281616
-0.000364634
-0.000677116
-0.00111078
-0.00162223
-0.00191408
-0.00192489
-0.00189097
-0.00165351
-0.00134346
-0.00123678
-0.00119635
-0.0010833
-0.00101172
-0.00102097
-0.00108214
-0.00109867
-0.00112347
-0.00106805
-0.000971074
-0.000416377
-0.000855916
-0.00113839
-0.0014974
-0.00180118
-0.00198075
-0.00200488
-0.00189647
-0.00166287
-0.00140402
-0.00125552
-0.00117357
-0.00108666
-0.00104966
-0.00104158
-0.00109452
-0.00108622
-0.00113509
-0.00110479
-0.0010797
-0.000806189
-0.0010551
-0.00122365
-0.00145882
-0.00169228
-0.00184919
-0.00186588
-0.00177385
-0.00159682
-0.00140271
-0.00126744
-0.00120234
-0.00113356
-0.00110524
-0.0010828
-0.00110997
-0.00109722
-0.0011237
-0.00109267
-0.00112245
-0.000992846
-0.00107732
-0.00117829
-0.0013338
-0.00149039
-0.00159291
-0.0016102
-0.00156448
-0.00146319
-0.0013472
-0.00125158
-0.00119666
-0.00113781
-0.00113179
-0.00110142
-0.00112868
-0.00110722
-0.00113903
-0.001104
-0.00113976
-0.00106357
-0.00108207
-0.00114243
-0.00124009
-0.00134048
-0.00141219
-0.00143612
-0.00141793
-0.00136713
-0.00130331
-0.00123896
-0.00120033
-0.00115491
-0.00115122
-0.00111723
-0.00113905
-0.00111002
-0.0011472
-0.00110489
-0.00116119
-0.00110941
-0.0010896
-0.00112631
-0.00118736
-0.00125246
-0.00130387
-0.00132865
-0.00132582
-0.00129984
-0.00126412
-0.00122353
-0.00119826
-0.0011641
-0.00116468
-0.00113489
-0.00115484
-0.00112843
-0.00115897
-0.00112734
-0.00116952
-0.00113751
-0.00109639
-0.00112108
-0.00116152
-0.00120558
-0.00124174
-0.00126086
-0.00126291
-0.00124945
-0.00123001
-0.0012027
-0.00118831
-0.00115786
-0.00116446
-0.00113012
-0.00115701
-0.00112091
-0.00116156
-0.00112115
-0.00117374
-0.00113848
-0.0010996
-0.00111886
-0.00114858
-0.00118014
-0.001207
-0.00122383
-0.00122994
-0.00122654
-0.00121718
-0.00120047
-0.00119202
-0.00117125
-0.00117542
-0.00115212
-0.00116952
-0.00114334
-0.00117321
-0.00114157
-0.00118798
-0.00115053
-0.00109962
-0.00111945
-0.0011432
-0.00116757
-0.00118676
-0.00119768
-0.00120177
-0.0011973
-0.00119138
-0.00117638
-0.00117497
-0.00115382
-0.00116558
-0.00113731
-0.00116444
-0.00112985
-0.00117195
-0.00113141
-0.00118883
-0.00115041
-0.00109496
-0.00111821
-0.00114074
-0.00116089
-0.00117692
-0.00118805
-0.00119364
-0.00119462
-0.0011927
-0.00118623
-0.00118459
-0.00117237
-0.00117864
-0.00116148
-0.0011778
-0.00115107
-0.00118163
-0.00113841
-0.00119993
-0.00113388
-0.00108762
-0.00112896
-0.00114525
-0.00116339
-0.00117196
-0.00117526
-0.00117829
-0.00117432
-0.00117329
-0.00116316
-0.0011651
-0.00114964
-0.0011589
-0.00113735
-0.001159
-0.00112878
-0.00117268
-0.00112531
-0.00117295
-0.00112784
-0.00110294
-0.00114392
-0.00115225
-0.00116364
-0.00117439
-0.00118327
-0.00118485
-0.00118484
-0.00118193
-0.00117894
-0.00117725
-0.00117244
-0.0011763
-0.00116693
-0.00118471
-0.00115813
-0.00118236
-0.00113851
-0.00121759
-0.00112536
-0.00115182
-0.00123312
-0.00116267
-0.00118549
-0.00118414
-0.00117898
-0.00117253
-0.00116487
-0.0011635
-0.00115709
-0.00115821
-0.00115024
-0.00115123
-0.00114026
-0.00113393
-0.00113134
-0.00116463
-0.00111056
-0.00113965
-0.00111518
-0.00121074
-0.00125343
-0.00118316
-0.00119486
-0.00119149
-0.00118017
-0.00117029
-0.00117428
-0.00116953
-0.00117416
-0.00116602
-0.00117822
-0.0011596
-0.00117437
-0.0011902
-0.00117381
-0.00121956
-0.00113629
-0.00123039
-0.00112875
-0.00130729
-0.00124636
-0.0012084
-0.00119701
-0.00119515
-0.00116632
-0.00117304
-0.0011669
-0.00116996
-0.00116142
-0.00116415
-0.00115648
-0.00116092
-0.00117712
-0.00113799
-0.00111255
-0.00112343
-0.00111759
-0.00112266
-0.00108646
-0.0011225
-0.00124994
-0.00120664
-0.00117198
-0.00118634
-0.0011569
-0.00116643
-0.00115896
-0.00116541
-0.00116895
-0.00117503
-0.0011737
-0.00116285
-0.00120471
-0.00113667
-0.00119229
-0.00123006
-0.00112254
-0.00123374
-0.00106066
-0.00110149
-0.00128897
-0.00120699
-0.00117193
-0.00118
-0.00115331
-0.00116155
-0.00115526
-0.00116104
-0.00115603
-0.00115234
-0.00114577
-0.00115177
-0.00115585
-0.00116793
-0.00122955
-0.00117736
-0.00108099
-0.000998989
-0.00089432
-0.00105626
-0.00119403
-0.0012092
-0.00118107
-0.00116127
-0.00114651
-0.00114384
-0.00114932
-0.00115528
-0.0011571
-0.00117463
-0.00113787
-0.00119669
-0.00113121
-0.00118385
-0.00121991
-0.00114677
-0.00120108
-0.00108508
-0.000582448
-0.00120647
-0.00115147
-0.00112471
-0.00119942
-0.0011439
-0.00114256
-0.00114257
-0.00114677
-0.00114567
-0.00115172
-0.00114028
-0.00113182
-0.00111012
-0.00108413
-0.00114082
-0.0011562
-0.00115755
-0.000916539
-0.000457439
0.00075073
)
;

boundaryField
{
    movingWall
    {
        type            zeroGradient;
    }
    fixedWalls
    {
        type            zeroGradient;
    }
    frontAndBack
    {
        type            empty;
    }
}


// ************************************************************************* //
