/*--------------------------------*- C++ -*----------------------------------*\
| =========                 |                                                 |
| \\      /  F ield         | OpenFOAM: The Open Source CFD Toolbox           |
|  \\    /   O peration     | Version:  5.x                                   |
|   \\  /    A nd           | Web:      www.OpenFOAM.org                      |
|    \\/     M anipulation  |                                                 |
\*---------------------------------------------------------------------------*/
FoamFile
{
    version     2.0;
    format      ascii;
    class       surfaceScalarField;
    location    "7.6";
    object      phi;
}
// * * * * * * * * * * * * * * * * * * * * * * * * * * * * * * * * * * * * * //

dimensions      [0 3 -1 0 0 0 0];

internalField   nonuniform List<scalar> 
760
(
-9.62592e-07
9.62592e-07
-1.60118e-06
6.38586e-07
-2.28368e-06
6.82502e-07
-2.86776e-06
5.84077e-07
-2.95956e-06
9.18071e-08
-3.04379e-06
8.42282e-08
-2.98586e-06
-5.79313e-08
-2.62708e-06
-3.58781e-07
-2.44471e-06
-1.82367e-07
-2.46151e-06
1.6793e-08
-2.34176e-06
-1.19742e-07
-2.154e-06
-1.87767e-07
-2.12198e-06
-3.2017e-08
-2.16872e-06
4.67398e-08
-2.22318e-06
5.44612e-08
-2.18845e-06
-3.4733e-08
-2.1341e-06
-5.43463e-08
-1.85421e-06
-2.7989e-07
-1.26606e-06
-5.88147e-07
-1.26606e-06
-7.77138e-07
1.73973e-06
-1.54359e-06
1.40504e-06
-1.88682e-06
1.02573e-06
-2.01079e-06
7.08049e-07
-2.24341e-06
3.24426e-07
-2.20951e-06
5.03277e-08
-2.02565e-06
-2.41795e-07
-1.93433e-06
-4.50095e-07
-1.69145e-06
-4.25247e-07
-1.32111e-06
-3.53546e-07
-1.11256e-06
-3.28294e-07
-1.03077e-06
-2.69557e-07
-9.58484e-07
-1.04306e-07
-8.76723e-07
-3.50214e-08
-9.06673e-07
8.4411e-08
-9.37732e-07
-3.6737e-09
-1.02056e-06
2.84842e-08
-1.00838e-06
-2.92068e-07
-8.29635e-07
-7.66897e-07
-2.0957e-06
-3.63466e-08
1.77608e-06
-2.03054e-07
1.57175e-06
-4.24115e-07
1.24679e-06
-5.84779e-07
8.68713e-07
-6.90748e-07
4.30395e-07
-6.95296e-07
5.48754e-08
-6.72852e-07
-2.64239e-07
-6.45941e-07
-4.77007e-07
-5.6078e-07
-5.10408e-07
-4.58977e-07
-4.55348e-07
-4.05662e-07
-3.81609e-07
-3.62158e-07
-3.13061e-07
-2.99368e-07
-1.67096e-07
-2.24907e-07
-1.09482e-07
-1.66863e-07
2.6367e-08
-1.1256e-07
-5.79774e-08
-8.85488e-08
4.47335e-09
-1.24546e-07
-2.56071e-07
-2.44534e-07
-6.46909e-07
-2.34023e-06
2.71008e-07
1.50507e-06
4.31437e-07
1.41132e-06
4.9945e-07
1.17878e-06
5.16524e-07
8.51638e-07
4.81785e-07
4.65135e-07
4.21882e-07
1.14778e-07
3.35847e-07
-1.78204e-07
2.27182e-07
-3.68342e-07
1.38683e-07
-4.2191e-07
7.45739e-08
-3.91239e-07
2.09808e-08
-3.28016e-07
-2.98177e-08
-2.62263e-07
-6.10713e-08
-1.35843e-07
-6.41505e-08
-1.06403e-07
-5.44656e-08
1.66821e-08
-4.36013e-08
-6.88418e-08
-3.33967e-08
-5.73121e-09
-8.1699e-08
-2.07769e-07
-1.11249e-07
-6.17359e-07
-2.45148e-06
3.04022e-07
1.20105e-06
5.57754e-07
1.15759e-06
7.38814e-07
9.97715e-07
8.32899e-07
7.57552e-07
8.30152e-07
4.67882e-07
7.5981e-07
1.85121e-07
6.30297e-07
-4.86902e-08
4.64406e-07
-2.02451e-07
3.0609e-07
-2.63594e-07
1.79648e-07
-2.64797e-07
7.42567e-08
-2.22624e-07
1.80906e-09
-1.89815e-07
-2.07674e-08
-1.13266e-07
-2.3117e-08
-1.04053e-07
3.01986e-09
-9.45469e-09
6.71167e-09
-7.25336e-08
-4.76356e-09
5.74402e-09
-2.28032e-08
-1.89729e-07
-4.47243e-08
-5.95438e-07
-2.4962e-06
2.54429e-07
9.46617e-07
4.83708e-07
9.28311e-07
6.62857e-07
8.18566e-07
7.6943e-07
6.50979e-07
7.90489e-07
4.46823e-07
7.37799e-07
2.3781e-07
6.28421e-07
6.06877e-08
4.94347e-07
-6.8377e-08
3.59647e-07
-1.28894e-07
2.53677e-07
-1.58827e-07
1.63319e-07
-1.32266e-07
1.0598e-07
-1.32477e-07
5.83436e-08
-6.56294e-08
3.25312e-08
-7.82407e-08
2.01457e-08
2.93085e-09
1.71057e-09
-5.40984e-08
-4.20564e-09
1.16602e-08
-3.85641e-08
-1.55371e-07
-2.88369e-08
-6.05165e-07
-2.52504e-06
1.98388e-07
7.4823e-07
3.81625e-07
7.45074e-07
5.29431e-07
6.7076e-07
6.24065e-07
5.56345e-07
6.5662e-07
4.14268e-07
6.296e-07
2.6483e-07
5.55864e-07
1.34424e-07
4.59813e-07
2.7674e-08
3.56527e-07
-2.56072e-08
2.70634e-07
-7.2934e-08
1.93097e-07
-5.47287e-08
1.40636e-07
-8.00157e-08
9.65627e-08
-2.15564e-08
7.19378e-08
-5.36158e-08
5.02018e-08
2.46668e-08
2.52303e-08
-2.91269e-08
1.30737e-09
3.55832e-08
-3.3222e-08
-1.20841e-07
-1.79953e-08
-6.20392e-07
-2.54304e-06
1.59385e-07
5.88845e-07
2.98609e-07
6.0585e-07
4.09455e-07
5.59913e-07
4.83912e-07
4.81889e-07
5.13118e-07
3.85063e-07
5.02444e-07
2.75503e-07
4.55803e-07
1.81065e-07
3.90102e-07
9.33756e-08
3.14804e-07
4.96908e-08
2.48508e-07
-6.6381e-09
1.84357e-07
9.42218e-09
1.36792e-07
-3.24503e-08
9.32177e-08
2.20176e-08
6.63209e-08
-2.6719e-08
4.20127e-08
4.8975e-08
2.42132e-08
-1.13274e-08
7.18595e-09
5.26104e-08
-1.23965e-08
-1.01259e-07
-2.44494e-10
-6.32544e-07
-2.54328e-06
1.31314e-07
4.57531e-07
2.50724e-07
4.8644e-07
3.45898e-07
4.64739e-07
4.06242e-07
4.21545e-07
4.33055e-07
3.5825e-07
4.26617e-07
2.81941e-07
3.95882e-07
2.11799e-07
3.51027e-07
1.3823e-07
2.97833e-07
1.02885e-07
2.4744e-07
4.37546e-08
2.00283e-07
5.65793e-08
1.63787e-07
4.04553e-09
1.32094e-07
5.37106e-08
1.03395e-07
1.97995e-09
7.77614e-08
7.46087e-08
4.37551e-08
2.26789e-08
1.54743e-08
8.08912e-08
-2.42988e-08
-6.1486e-08
-3.17094e-08
-6.25133e-07
-2.57499e-06
1.32813e-07
3.24718e-07
2.13694e-07
4.05559e-07
2.68517e-07
4.09917e-07
3.0674e-07
3.83321e-07
3.24237e-07
3.40753e-07
3.30568e-07
2.7561e-07
3.14979e-07
2.27389e-07
2.86776e-07
1.66433e-07
2.46144e-07
1.43517e-07
2.04127e-07
8.57721e-08
1.64146e-07
9.65599e-08
1.24834e-07
4.33577e-08
9.72693e-08
8.12753e-08
6.73769e-08
3.18724e-08
5.69887e-08
8.49968e-08
5.32916e-08
2.6376e-08
3.65613e-08
9.76215e-08
2.86113e-08
-5.35359e-08
1.82081e-08
-6.1473e-07
-2.55678e-06
1.31717e-07
1.93001e-07
2.30635e-07
3.06641e-07
3.022e-07
3.38352e-07
3.28515e-07
3.57007e-07
3.31922e-07
3.37346e-07
3.0905e-07
2.98482e-07
2.81462e-07
2.54977e-07
2.49581e-07
1.98314e-07
2.24181e-07
1.68917e-07
1.94618e-07
1.15335e-07
1.76427e-07
1.14751e-07
1.5341e-07
6.63746e-08
1.4339e-07
9.12955e-08
1.28704e-07
4.6558e-08
1.06885e-07
1.06816e-07
6.63382e-08
6.69229e-08
5.56944e-08
1.08265e-07
1.05157e-09
1.10695e-09
-2.02804e-08
-5.93398e-07
-2.57706e-06
2.26888e-07
-3.38866e-08
2.15587e-07
3.17941e-07
2.06385e-07
3.47554e-07
2.1789e-07
3.45502e-07
2.36015e-07
3.19221e-07
2.56408e-07
2.78088e-07
2.49689e-07
2.61696e-07
2.31017e-07
2.16986e-07
2.00095e-07
1.9984e-07
1.67523e-07
1.47907e-07
1.34288e-07
1.47987e-07
9.81532e-08
1.02509e-07
7.13487e-08
1.181e-07
1.65835e-08
1.01323e-07
3.80874e-08
8.53118e-08
-2.67596e-09
1.07686e-07
3.25403e-08
7.30491e-08
5.35854e-08
-1.99381e-08
1.65329e-08
-5.56346e-07
-2.56053e-06
3.23055e-07
-3.56941e-07
3.245e-07
3.16496e-07
3.19903e-07
3.5215e-07
2.37219e-07
4.28186e-07
1.73607e-07
3.82832e-07
1.27476e-07
3.24219e-07
1.1815e-07
2.71022e-07
1.0811e-07
2.27026e-07
1.20056e-07
1.87893e-07
1.07033e-07
1.6093e-07
1.23453e-07
1.31566e-07
9.18266e-08
1.34136e-07
1.35994e-07
7.39328e-08
1.21271e-07
1.16046e-07
1.289e-07
7.7683e-08
1.09493e-07
1.27093e-07
1.04105e-07
7.84368e-08
4.77855e-08
3.63818e-08
-3.06198e-08
-4.7794e-07
-2.59115e-06
2.68431e-07
-6.25373e-07
2.53013e-07
3.31914e-07
3.29349e-07
2.75814e-07
4.27905e-07
3.29631e-07
4.53535e-07
3.57202e-07
4.03635e-07
3.74119e-07
3.46855e-07
3.27802e-07
2.845e-07
2.89381e-07
2.36984e-07
2.3541e-07
1.90133e-07
2.07781e-07
1.56389e-07
1.6531e-07
1.18042e-07
1.72483e-07
5.27835e-08
1.39191e-07
1.44513e-08
1.54379e-07
-7.27938e-08
1.64928e-07
-2.2391e-07
2.78209e-07
-3.36918e-08
-1.11781e-07
6.72147e-08
-6.45247e-08
4.95078e-08
-4.60233e-07
-2.54164e-06
8.60582e-08
-7.11431e-07
1.25435e-07
2.92538e-07
-1.08775e-07
5.10024e-07
-1.691e-07
3.89956e-07
-1.90197e-07
3.78299e-07
-1.35762e-07
3.19685e-07
-1.22256e-07
3.14296e-07
-9.12478e-08
2.58373e-07
-7.30011e-08
2.17163e-07
-5.58213e-08
1.90601e-07
-5.39933e-08
1.63482e-07
-7.71937e-08
1.95683e-07
-2.89339e-08
9.09316e-08
-1.36914e-07
2.62359e-07
6.92318e-08
-4.12177e-08
1.45681e-07
2.0176e-07
4.06404e-08
-6.74066e-09
-5.58975e-08
3.20132e-08
-3.89892e-08
-4.77142e-07
-2.58063e-06
3.18498e-08
-7.4328e-07
1.00033e-07
2.24355e-07
1.37398e-07
4.72659e-07
2.68871e-07
2.58483e-07
3.00183e-07
3.46987e-07
3.40473e-07
2.79394e-07
4.17135e-07
2.37635e-07
4.31272e-07
2.44236e-07
4.65609e-07
1.82826e-07
4.32506e-07
2.23704e-07
4.44199e-07
1.51788e-07
3.65168e-07
2.74714e-07
4.12185e-07
4.39151e-08
2.91788e-07
3.82755e-07
1.5981e-07
9.07596e-08
9.88535e-08
2.62717e-07
7.6881e-08
1.52318e-08
6.38394e-08
4.50548e-08
7.33515e-08
-4.86654e-07
-2.50728e-06
-2.38181e-07
-5.05099e-07
-5.05169e-07
4.91343e-07
-3.17436e-07
2.84926e-07
-3.44155e-07
2.85202e-07
-3.0998e-07
3.12812e-07
-2.97032e-07
2.66446e-07
-2.93792e-07
2.34394e-07
-2.71397e-07
2.21842e-07
-3.05478e-07
2.16907e-07
-2.7529e-07
1.93516e-07
-2.9894e-07
1.75439e-07
-2.28421e-07
2.04195e-07
-2.79139e-07
9.46332e-08
-2.14035e-07
3.17651e-07
-1.23767e-07
4.92166e-10
-2.48606e-07
3.87556e-07
1.44331e-07
-3.77706e-07
1.40921e-07
4.84656e-08
3.39551e-08
-3.79688e-07
-2.47332e-06
-6.37215e-08
-4.41378e-07
3.08208e-07
1.19414e-07
2.7267e-07
3.20463e-07
2.96802e-07
2.6107e-07
3.56913e-07
2.52702e-07
3.98869e-07
2.24489e-07
4.40691e-07
1.92572e-07
4.94569e-07
1.67964e-07
5.15636e-07
1.9584e-07
5.5022e-07
1.58932e-07
5.52152e-07
1.73507e-07
5.89299e-07
1.67048e-07
6.1398e-07
6.99516e-08
5.25232e-07
4.06399e-07
6.29261e-07
-1.03537e-07
5.8329e-07
4.33526e-07
4.47923e-07
-2.42339e-07
2.00675e-07
2.95714e-07
2.5069e-07
-4.29703e-07
-2.22264e-06
-8.11602e-07
3.70225e-07
-9.35621e-07
2.43433e-07
-8.92882e-07
2.77724e-07
-7.90304e-07
1.58492e-07
-7.1332e-07
1.75718e-07
-6.33278e-07
1.44447e-07
-5.91957e-07
1.51251e-07
-5.50387e-07
1.26394e-07
-4.929e-07
1.38353e-07
-4.53225e-07
1.19256e-07
-3.73954e-07
9.42368e-08
-3.17096e-07
1.1019e-07
-2.99343e-07
5.21989e-08
-9.0816e-08
1.97872e-07
-2.83597e-07
8.92443e-08
1.89052e-08
1.31024e-07
-1.72047e-07
-5.13866e-08
1.78061e-07
-5.43947e-08
6.67622e-07
-9.19264e-07
-1.55501e-06
3.70225e-07
6.13657e-07
8.91381e-07
1.04987e-06
1.22559e-06
1.37004e-06
1.52129e-06
1.64768e-06
1.78604e-06
1.90529e-06
1.99953e-06
2.10972e-06
2.16192e-06
2.35979e-06
2.44903e-06
2.58006e-06
2.52867e-06
2.47428e-06
1.55501e-06
)
;

boundaryField
{
    movingWall
    {
        type            calculated;
        value           uniform 0;
    }
    fixedWalls
    {
        type            calculated;
        value           uniform 0;
    }
    frontAndBack
    {
        type            empty;
        value           nonuniform 0();
    }
}


// ************************************************************************* //
