/*--------------------------------*- C++ -*----------------------------------*\
| =========                 |                                                 |
| \\      /  F ield         | OpenFOAM: The Open Source CFD Toolbox           |
|  \\    /   O peration     | Version:  5.x                                   |
|   \\  /    A nd           | Web:      www.OpenFOAM.org                      |
|    \\/     M anipulation  |                                                 |
\*---------------------------------------------------------------------------*/
FoamFile
{
    version     2.0;
    format      ascii;
    class       volScalarField;
    location    "5.7";
    object      p;
}
// * * * * * * * * * * * * * * * * * * * * * * * * * * * * * * * * * * * * * //

dimensions      [0 2 -2 0 0 0 0];

internalField   nonuniform List<scalar> 
400
(
-1.29142e-10
3.74348e-06
1.18202e-05
2.51605e-05
4.56343e-05
7.62054e-05
0.000121151
0.000183537
0.000246031
0.000218192
-3.94607e-05
-0.000407152
-0.000667168
-0.000821547
-0.00086532
-0.000666849
-0.000306662
0.00011395
0.000614593
0.00131221
-4.78298e-06
-1.65977e-06
4.90365e-06
1.52002e-05
2.96414e-05
4.81927e-05
6.90452e-05
8.53298e-05
7.33674e-05
-4.27401e-05
-0.000312598
-0.000533424
-0.000645272
-0.000859281
-0.00104915
-0.000917135
-0.000590248
-0.000262864
8.3545e-05
0.000593871
-1.39357e-05
-1.17874e-05
-7.41525e-06
-9.63587e-07
7.13655e-06
1.56046e-05
2.12555e-05
1.68073e-05
-1.27348e-05
-9.24627e-05
-0.000244412
-0.000438429
-0.000669303
-0.000923875
-0.0010055
-0.00088211
-0.00067342
-0.000447231
-0.000211719
9.45698e-05
-2.60762e-05
-2.49807e-05
-2.28775e-05
-2.02107e-05
-1.78246e-05
-1.7423e-05
-2.21627e-05
-3.75283e-05
-7.28389e-05
-0.000138706
-0.000247979
-0.000391527
-0.000548307
-0.000670076
-0.000729543
-0.00069671
-0.00058619
-0.000432416
-0.000353371
-0.000161103
-3.98977e-05
-3.97677e-05
-3.96431e-05
-4.00852e-05
-4.19952e-05
-4.69873e-05
-5.76645e-05
-7.75589e-05
-0.000112956
-0.000166861
-0.000246503
-0.000341833
-0.000441229
-0.000516915
-0.000563003
-0.00054448
-0.000495598
-0.000394024
-0.000378324
-0.000246869
-5.41919e-05
-5.48456e-05
-5.62612e-05
-5.89758e-05
-6.37694e-05
-7.18944e-05
-8.54491e-05
-0.000105765
-0.000137561
-0.000180947
-0.000238091
-0.00030122
-0.000366462
-0.000411899
-0.000443721
-0.000426749
-0.000402889
-0.000338842
-0.000326156
-0.000294446
-6.80158e-05
-6.92915e-05
-7.18337e-05
-7.61146e-05
-8.26585e-05
-9.22286e-05
-0.000106891
-0.000125748
-0.000153264
-0.000187301
-0.000229435
-0.000272439
-0.000317329
-0.00034553
-0.000370469
-0.000357857
-0.000348694
-0.000287838
-0.000295991
-0.000227616
-8.06603e-05
-8.24602e-05
-8.58042e-05
-9.10525e-05
-9.85834e-05
-0.000108228
-0.000122796
-0.000140017
-0.000163094
-0.000189464
-0.000221384
-0.000250776
-0.000283748
-0.000297104
-0.000318631
-0.000284749
-0.000301546
-0.000233712
-0.00022855
-0.000191919
-9.16248e-05
-9.39397e-05
-9.80744e-05
-0.000104101
-0.000112027
-0.00012204
-0.00013512
-0.000150409
-0.000169708
-0.000190145
-0.000215011
-0.000235008
-0.000261014
-0.000268091
-0.000289376
-0.000270228
-0.000288483
-0.000234382
-0.000323786
-0.000236821
-0.000100588
-0.00010381
-0.000108545
-0.000114879
-0.000122822
-0.000132105
-0.000143989
-0.000156965
-0.000173237
-0.000188749
-0.000209017
-0.00022138
-0.000244136
-0.000241242
-0.000267718
-0.000232203
-0.000277663
-0.000200785
-0.000273991
-0.000171303
-0.000106599
-0.000110783
-0.000117457
-0.000124901
-0.000133187
-0.000142498
-0.000153005
-0.000164211
-0.000177597
-0.000189538
-0.000206178
-0.000214524
-0.000234156
-0.000230948
-0.000254163
-0.00022576
-0.000257585
-0.000187077
-0.000223016
-0.000162132
-0.00011072
-0.000119601
-0.000126053
-0.000133459
-0.000140728
-0.000148
-0.000157457
-0.000166121
-0.00017784
-0.000186099
-0.000200737
-0.000203455
-0.000222301
-0.000210464
-0.000238916
-0.000200548
-0.000252344
-0.000180825
-0.000272564
-0.000188053
-0.000108671
-0.000118796
-0.000132055
-0.0001425
-0.000150578
-0.000159389
-0.00016712
-0.0001748
-0.000183665
-0.000190287
-0.000202017
-0.000204514
-0.000220405
-0.00021409
-0.00023746
-0.000215671
-0.000248575
-0.000196465
-0.000272896
-0.000187838
-0.000107346
-0.000140476
-0.000144451
-0.000154914
-0.000157613
-0.000161222
-0.000167572
-0.000171916
-0.000180365
-0.00018409
-0.000194991
-0.000193425
-0.000207432
-0.000196369
-0.000214696
-0.000189922
-0.000231676
-0.000188922
-0.000249057
-0.000205031
-0.000108424
-0.000148159
-0.00015255
-0.00016116
-0.000171916
-0.000180003
-0.000180329
-0.000185189
-0.00018912
-0.000193405
-0.000200014
-0.000202875
-0.000210338
-0.000209767
-0.000227884
-0.000217295
-0.000249992
-0.000207373
-0.000275095
-0.00020712
-0.000224498
-0.00025457
-0.000172161
-0.00020846
-0.000180812
-0.000169741
-0.000171494
-0.000173661
-0.00018113
-0.000183168
-0.000191897
-0.000189072
-0.000200577
-0.00019429
-0.00019782
-0.00018004
-0.000182732
-0.000197596
-0.000211064
-0.000178685
-8.93077e-05
-0.000237659
-0.000246562
-0.000198378
-0.000179763
-0.00018452
-0.000176431
-0.00019148
-0.000189681
-0.000197894
-0.000198809
-0.000206138
-0.000199314
-0.000223602
-0.000200936
-0.000220775
-0.000304128
-0.000199666
-0.000293196
-9.92469e-05
-0.000112754
-0.000297984
-0.00019781
-0.000156788
-0.000180327
-0.000166876
-0.000179596
-0.000181547
-0.000190765
-0.00019294
-0.000196539
-0.000192586
-0.000195805
-0.000188169
-0.000206507
-0.000266676
-0.000171489
-9.61263e-05
-5.9794e-05
8.27999e-05
-6.06387e-05
-0.000170191
-0.000192444
-0.000198924
-0.000175719
-0.000166665
-0.000179766
-0.000185617
-0.000195717
-0.000196054
-0.000199739
-0.000201316
-0.000231108
-0.000189622
-0.000209672
-0.00026385
-0.000161867
-0.00023877
-0.000155265
0.000343163
-0.000216252
-0.00017298
-0.000139578
-0.000201062
-0.000147421
-0.000160531
-0.000160226
-0.000168155
-0.000172263
-0.00016745
-0.000171989
-0.000173311
-0.000179248
-0.000174719
-0.000174752
-0.000154412
-0.000153454
4.38441e-05
0.000462179
0.00167243
)
;

boundaryField
{
    movingWall
    {
        type            zeroGradient;
    }
    fixedWalls
    {
        type            zeroGradient;
    }
    frontAndBack
    {
        type            empty;
    }
}


// ************************************************************************* //
