/*--------------------------------*- C++ -*----------------------------------*\
| =========                 |                                                 |
| \\      /  F ield         | OpenFOAM: The Open Source CFD Toolbox           |
|  \\    /   O peration     | Version:  5.x                                   |
|   \\  /    A nd           | Web:      www.OpenFOAM.org                      |
|    \\/     M anipulation  |                                                 |
\*---------------------------------------------------------------------------*/
FoamFile
{
    version     2.0;
    format      ascii;
    class       volVectorField;
    location    "5.7";
    object      U;
}
// * * * * * * * * * * * * * * * * * * * * * * * * * * * * * * * * * * * * * //

dimensions      [0 1 -1 0 0 0 0];

internalField   nonuniform List<vector> 
400
(
(-0.000331019 0.000337142 0)
(-0.00104547 0.000375391 0)
(-0.00185318 0.000430606 0)
(-0.00279998 0.000533203 0)
(-0.00400557 0.000720418 0)
(-0.00565327 0.00107717 0)
(-0.00808643 0.00180855 0)
(-0.0118995 0.0034115 0)
(-0.0182256 0.00652724 0)
(-0.0296657 0.00878381 0)
(-0.0467622 0.00204629 0)
(-0.0575489 -0.00895814 0)
(-0.0585007 -0.00621888 0)
(-0.0621027 0.00397226 0)
(-0.0657092 0.00234129 0)
(-0.0607658 -0.0045186 0)
(-0.0525153 -0.00482874 0)
(-0.0451514 -0.00443702 0)
(-0.0353441 -0.00763994 0)
(-0.0105124 -0.0150519 0)
(-0.000329749 0.00102178 0)
(-0.00103759 0.00113289 0)
(-0.0018201 0.00128434 0)
(-0.00269384 0.0015538 0)
(-0.00371636 0.00201061 0)
(-0.00492785 0.00279361 0)
(-0.00633944 0.00417526 0)
(-0.00782994 0.00665306 0)
(-0.00889931 0.0108557 0)
(-0.00912698 0.0165118 0)
(-0.0111607 0.0202428 0)
(-0.0181 0.018692 0)
(-0.0295089 0.0116742 0)
(-0.0390457 0.00214727 0)
(-0.0409908 -0.00360516 0)
(-0.0383813 -0.0073942 0)
(-0.034428 -0.0119867 0)
(-0.0295268 -0.0173503 0)
(-0.0249209 -0.0254044 0)
(-0.00483867 -0.0403988 0)
(-0.000287986 0.00166536 0)
(-0.000904334 0.00183624 0)
(-0.00157082 0.00204872 0)
(-0.00228077 0.00240954 0)
(-0.00305256 0.00297537 0)
(-0.00386904 0.00384174 0)
(-0.00466044 0.00515478 0)
(-0.00523301 0.00711537 0)
(-0.00519053 0.00991809 0)
(-0.00392609 0.0133031 0)
(-0.00169119 0.0157012 0)
(2.7584e-05 0.0157589 0)
(6.43452e-05 0.0145637 0)
(-0.000926185 0.0106459 0)
(-0.0033338 0.00351305 0)
(-0.00545491 -0.00542035 0)
(-0.00719151 -0.0110142 0)
(-0.00846279 -0.0141871 0)
(-0.0100315 -0.0244034 0)
(-0.00274201 -0.0445925 0)
(-0.000233212 0.00220316 0)
(-0.000732521 0.00241835 0)
(-0.00125999 0.00265742 0)
(-0.00179184 0.00304997 0)
(-0.00232213 0.0036333 0)
(-0.00280905 0.00446595 0)
(-0.00316946 0.00562057 0)
(-0.00324364 0.00716278 0)
(-0.00278606 0.00910821 0)
(-0.00140515 0.0112533 0)
(0.00104377 0.0130731 0)
(0.00431965 0.0136312 0)
(0.00707528 0.0125671 0)
(0.00906431 0.00886957 0)
(0.00879592 0.00304109 0)
(0.0077765 -0.0034613 0)
(0.00408428 -0.00860807 0)
(0.00101657 -0.0142003 0)
(-0.00223255 -0.02727 0)
(-0.0026076 -0.0518497 0)
(-0.000173668 0.00262549 0)
(-0.000549538 0.00287277 0)
(-0.000938928 0.00311351 0)
(-0.00130897 0.00349541 0)
(-0.00164269 0.0040361 0)
(-0.00189159 0.00476196 0)
(-0.0019819 0.0057 0)
(-0.00178605 0.00684446 0)
(-0.00118422 0.00817767 0)
(9.36016e-05 0.00945244 0)
(0.00201392 0.0105057 0)
(0.00468783 0.010602 0)
(0.00718539 0.00972909 0)
(0.00962475 0.0070545 0)
(0.0102083 0.0037234 0)
(0.0101621 -0.0013343 0)
(0.00670672 -0.00528014 0)
(0.00660046 -0.00992613 0)
(-0.00104162 -0.0211357 0)
(0.00205729 -0.0490585 0)
(-0.000114486 0.00292773 0)
(-0.000370992 0.00320119 0)
(-0.000635241 0.00343064 0)
(-0.000870366 0.00378275 0)
(-0.00105696 0.00425556 0)
(-0.00114737 0.0048556 0)
(-0.0010916 0.00558652 0)
(-0.000774872 0.00638984 0)
(-0.000202985 0.00729197 0)
(0.000890235 0.00798098 0)
(0.00226785 0.00854363 0)
(0.00422791 0.00823655 0)
(0.00584348 0.0076162 0)
(0.00790267 0.00535371 0)
(0.00791971 0.00357141 0)
(0.00908021 -0.000486752 0)
(0.00550876 -0.00320202 0)
(0.0059856 -0.00813945 0)
(-0.000359565 -0.0200099 0)
(0.00097505 -0.0540763 0)
(-5.55869e-05 0.00311336 0)
(-0.000200318 0.00340989 0)
(-0.000355451 0.00362392 0)
(-0.00048491 0.0039343 0)
(-0.000571262 0.00433733 0)
(-0.000562407 0.00480863 0)
(-0.000452069 0.00537474 0)
(-8.52132e-05 0.00589995 0)
(0.000392337 0.00651981 0)
(0.00132648 0.00681266 0)
(0.00225269 0.00715381 0)
(0.00377207 0.00655827 0)
(0.00464926 0.0062792 0)
(0.00637491 0.0040785 0)
(0.00603027 0.00348015 0)
(0.00731549 -0.0002561 0)
(0.00429934 -0.00154771 0)
(0.00568033 -0.00613604 0)
(0.000791651 -0.0185111 0)
(0.00427072 -0.0487887 0)
(1.23834e-06 0.00318436 0)
(-4.07573e-05 0.00352161 0)
(-0.000109111 0.00373136 0)
(-0.000157075 0.0040403 0)
(-0.000181767 0.00438011 0)
(-0.000108831 0.00476416 0)
(-4.27944e-07 0.0051859 0)
(0.000372873 0.00552146 0)
(0.000708438 0.00594527 0)
(0.00152358 0.00598999 0)
(0.00202792 0.0062592 0)
(0.00332472 0.0055292 0)
(0.00347725 0.00559434 0)
(0.00520266 0.0035422 0)
(0.00382208 0.00377364 0)
(0.00621641 0.000303909 0)
(0.00205536 0.000135214 0)
(0.00511796 -0.0051095 0)
(-0.00214833 -0.0139817 0)
(-0.000800372 -0.0468743 0)
(7.69226e-05 0.00315379 0)
(0.000140573 0.00353299 0)
(0.000161696 0.00373798 0)
(0.000162104 0.00396449 0)
(0.000147327 0.00426133 0)
(0.000239479 0.00450467 0)
(0.000296731 0.00485937 0)
(0.000668931 0.00503501 0)
(0.000851618 0.005365 0)
(0.00162713 0.00522558 0)
(0.00179405 0.00547809 0)
(0.00305965 0.00458011 0)
(0.00272304 0.00491717 0)
(0.00455238 0.00265298 0)
(0.00279589 0.00363302 0)
(0.00524025 -8.15618e-05 0)
(0.000900251 0.000807972 0)
(0.003896 -0.00420768 0)
(-0.00198465 -0.0155065 0)
(0.00209041 -0.0568933 0)
(0.000155087 0.00294295 0)
(0.000310714 0.00342596 0)
(0.000325451 0.00374458 0)
(0.000367458 0.00416959 0)
(0.000367939 0.00443501 0)
(0.00049753 0.00476612 0)
(0.000539237 0.00494472 0)
(0.000889105 0.00506297 0)
(0.000911131 0.00522026 0)
(0.00164006 0.00499686 0)
(0.00142582 0.00520746 0)
(0.00273233 0.00437198 0)
(0.00167438 0.00484891 0)
(0.00393703 0.00307127 0)
(0.00101616 0.00420668 0)
(0.00495196 0.00135626 0)
(-0.000529339 0.00260765 0)
(0.00565294 -0.00279381 0)
(-0.00289491 -0.0101364 0)
(0.00661945 -0.0445625 0)
(0.000322825 0.00275267 0)
(0.00069021 0.00353884 0)
(0.000890727 0.00367696 0)
(0.000851704 0.00377463 0)
(0.000727523 0.00397912 0)
(0.000735714 0.0040185 0)
(0.00057535 0.00427494 0)
(0.000925464 0.00427659 0)
(0.000770769 0.00448027 0)
(0.00158624 0.00420357 0)
(0.00115483 0.0044366 0)
(0.00264692 0.00352492 0)
(0.00138974 0.00410007 0)
(0.00392625 0.00199208 0)
(0.000913524 0.0035737 0)
(0.00497988 -0.00022754 0)
(-0.00140625 0.00204497 0)
(0.00465093 -0.0034128 0)
(-0.00500364 -0.0133269 0)
(0.00292632 -0.052449 0)
(0.000669185 0.00175654 0)
(0.000895328 0.00255883 0)
(0.000566794 0.00352193 0)
(0.000674817 0.00450733 0)
(0.000652209 0.0047988 0)
(0.000819994 0.00524857 0)
(0.000816391 0.00514647 0)
(0.00111679 0.00516973 0)
(0.000858549 0.00503899 0)
(0.00160618 0.00477811 0)
(0.000803645 0.0048078 0)
(0.00234722 0.00412332 0)
(0.00030442 0.00457841 0)
(0.00329086 0.00330658 0)
(-0.00118332 0.00458679 0)
(0.00443956 0.00299599 0)
(-0.0034835 0.00381897 0)
(0.00551628 0.00017342 0)
(-0.00571081 -0.0102547 0)
(0.00589245 -0.0493794 0)
(0.00111917 0.001309 0)
(0.00217153 0.00428723 0)
(0.00274286 0.00406245 0)
(0.00207876 0.0036353 0)
(0.00134045 0.00357786 0)
(0.000975457 0.00330217 0)
(0.000430166 0.0036297 0)
(0.000751191 0.00359238 0)
(0.000346447 0.00371772 0)
(0.00128006 0.003516 0)
(0.000438148 0.0035995 0)
(0.00230165 0.00303287 0)
(0.000302114 0.00325557 0)
(0.00388478 0.00212439 0)
(-0.000369364 0.00265779 0)
(0.00565479 0.000549933 0)
(-0.00232057 0.00162078 0)
(0.00606875 -0.00218473 0)
(-0.00755211 -0.0127376 0)
(0.00645928 -0.051157 0)
(0.00376176 -0.0017537 0)
(0.00240982 0.000300955 0)
(0.000354221 0.0033236 0)
(0.00122343 0.00587158 0)
(0.00121394 0.00615944 0)
(0.00135188 0.00682031 0)
(0.00128678 0.00594067 0)
(0.00140345 0.00581161 0)
(0.000893785 0.0051716 0)
(0.00166052 0.00509125 0)
(0.000436656 0.00459324 0)
(0.00214141 0.00449871 0)
(-0.000425839 0.00412186 0)
(0.0026097 0.00402761 0)
(-0.00217215 0.00448119 0)
(0.00280527 0.00481879 0)
(-0.00585118 0.00512124 0)
(0.00705206 0.00488131 0)
(-0.00641477 -0.0084663 0)
(0.00748219 -0.0512402 0)
(0.00524389 -0.00467352 0)
(0.00598446 0.00936015 0)
(0.00470738 0.00539362 0)
(0.00107054 0.00353738 0)
(-0.00112096 0.00295111 0)
(-0.00115361 0.0022925 0)
(-0.00149807 0.00303761 0)
(-0.000796169 0.00302841 0)
(-0.000830064 0.00303564 0)
(6.27553e-05 0.00301013 0)
(-0.000508941 0.00285815 0)
(0.00105958 0.00277649 0)
(-0.000656833 0.00259699 0)
(0.00294863 0.00265053 0)
(-0.00206209 0.00182061 0)
(0.00743452 0.00246631 0)
(-0.00297472 -0.00270105 0)
(0.00775992 -0.0027298 0)
(-0.00798448 -0.0147982 0)
(0.00753108 -0.0516565 0)
(0.00152134 -0.0160669 0)
(0.00543309 9.8691e-05 0)
(0.00541508 0.0079953 0)
(0.00773784 0.01052 0)
(0.00771556 0.00856829 0)
(0.0054601 0.00838794 0)
(0.00472481 0.00616854 0)
(0.0042857 0.00610243 0)
(0.00284656 0.0050633 0)
(0.0038289 0.00549366 0)
(0.00151355 0.0042995 0)
(0.00420415 0.00540272 0)
(0.000190327 0.00300869 0)
(0.00535765 0.00610538 0)
(-0.00162288 0.00142824 0)
(0.00255499 0.00618885 0)
(-0.00510158 0.00709266 0)
(0.00765136 0.00977486 0)
(-0.00644883 -0.00499675 0)
(0.00834863 -0.0511657 0)
(-0.00354878 -0.00824801 0)
(-0.00653249 0.00926922 0)
(-0.0146928 -0.00047688 0)
(-0.00399099 0.00398543 0)
(-0.011451 0.0044945 0)
(-0.00482133 0.00391497 0)
(-0.00784346 0.00389505 0)
(-0.00564273 0.00359153 0)
(-0.00566042 0.0031922 0)
(-0.00553508 0.00307821 0)
(-0.00415524 0.00235937 0)
(-0.00502155 0.00260414 0)
(-0.00258217 0.00158902 0)
(-0.00560644 0.0026792 0)
(-0.00217435 0.00437926 0)
(-0.00140307 0.00432413 0)
(-0.00734899 -0.0090447 0)
(0.0122765 -0.00251441 0)
(-0.00586122 -0.0189051 0)
(0.00851402 -0.0511153 0)
(-0.0117636 -0.010857 0)
(0.0115504 0.0107396 0)
(0.0061706 0.00684244 0)
(0.00439856 0.0074192 0)
(0.00892697 0.00846884 0)
(0.00858031 0.00695093 0)
(0.0107211 0.00640175 0)
(0.0118294 0.00572516 0)
(0.0116965 0.00482564 0)
(0.0141106 0.00520857 0)
(0.0112155 0.0038407 0)
(0.0154862 0.0054756 0)
(0.00865124 0.0031201 0)
(0.0161415 0.00825172 0)
(0.00493643 -0.00296082 0)
(0.0189229 0.0102208 0)
(0.00480612 -0.00260294 0)
(0.0081732 0.00758069 0)
(-0.00137893 0.00531896 0)
(0.0127002 -0.0467209 0)
(-0.020603 -0.00523637 0)
(-0.0131131 -0.00411237 0)
(-0.0227954 0.00347822 0)
(-0.0143539 -0.000878135 0)
(-0.0207189 0.00167352 0)
(-0.0116177 2.55414e-05 0)
(-0.0200624 0.00120998 0)
(-0.00896321 0.00124962 0)
(-0.0188918 0.000797888 0)
(-0.0069096 0.00245759 0)
(-0.0160969 0.0011383 0)
(-0.00489949 0.00323223 0)
(-0.0132446 0.00125769 0)
(-0.00126776 0.0042776 0)
(-0.00634332 4.86779e-05 0)
(-0.00665456 0.00720008 0)
(0.00700965 -0.00179036 0)
(-0.00993022 0.000335132 0)
(0.0170931 -0.02694 0)
(0.0130462 -0.0483156 0)
(0.00163916 0.0178891 0)
(0.0132228 0.0140715 0)
(0.0128845 0.0078179 0)
(0.0208439 0.00752704 0)
(0.0231559 0.00598388 0)
(0.0247167 0.00577348 0)
(0.0308586 0.00543285 0)
(0.0299105 0.00454497 0)
(0.0368009 0.00384111 0)
(0.0347167 0.00307566 0)
(0.0405935 0.00278503 0)
(0.0396408 0.00234324 0)
(0.044444 0.00243395 0)
(0.0443982 0.000888256 0)
(0.0477148 0.00213366 0)
(0.0486787 -0.000286464 0)
(0.0489301 0.000433519 0)
(0.0507991 -0.000583058 0)
(0.0427239 -0.00508866 0)
(0.0269201 -0.00489276 0)
)
;

boundaryField
{
    movingWall
    {
        type            fixedValue;
        value           uniform (1 0 0);
    }
    fixedWalls
    {
        type            noSlip;
    }
    frontAndBack
    {
        type            empty;
    }
}


// ************************************************************************* //
