/*--------------------------------*- C++ -*----------------------------------*\
| =========                 |                                                 |
| \\      /  F ield         | OpenFOAM: The Open Source CFD Toolbox           |
|  \\    /   O peration     | Version:  5.x                                   |
|   \\  /    A nd           | Web:      www.OpenFOAM.org                      |
|    \\/     M anipulation  |                                                 |
\*---------------------------------------------------------------------------*/
FoamFile
{
    version     2.0;
    format      ascii;
    class       volVectorField;
    location    "15.2";
    object      U;
}
// * * * * * * * * * * * * * * * * * * * * * * * * * * * * * * * * * * * * * //

dimensions      [0 1 -1 0 0 0 0];

internalField   nonuniform List<vector> 
400
(
(-0.0140862 0.00619858 0)
(-0.030723 0.00676128 0)
(-0.0396596 0.00234483 0)
(-0.0428639 0.00012078 0)
(-0.0454414 0.000922631 0)
(-0.0460175 -0.000767257 0)
(-0.0476173 0.00123523 0)
(-0.0475113 -0.000453156 0)
(-0.0493528 0.00123079 0)
(-0.0488427 -0.000385591 0)
(-0.0512368 0.00118469 0)
(-0.0512014 0.000200884 0)
(-0.0528167 0.000371219 0)
(-0.0537748 0.00053425 0)
(-0.0539649 -0.00031917 0)
(-0.0561226 6.57758e-05 0)
(-0.0512076 -0.00250998 0)
(-0.0502914 -0.00616666 0)
(-0.0445906 -0.0105148 0)
(-0.006603 -0.020381 0)
(-0.00894823 0.0312805 0)
(-0.01865 0.0201099 0)
(-0.0174372 0.00833936 0)
(-0.0227036 0.00614601 0)
(-0.0188055 0.0011102 0)
(-0.0217861 0.00242527 0)
(-0.0210887 0.000382216 0)
(-0.0214074 0.00156428 0)
(-0.0215454 0.000600058 0)
(-0.0226416 0.00164015 0)
(-0.0204551 0.0012392 0)
(-0.0254436 0.0015903 0)
(-0.0178821 0.001204 0)
(-0.0262683 0.000116368 0)
(-0.017744 0.00132658 0)
(-0.025532 -0.00183646 0)
(-0.0228166 -0.000487192 0)
(-0.0216445 -0.0123076 0)
(-0.0325273 -0.0226124 0)
(-0.00298998 -0.0455494 0)
(-0.00464629 0.036603 0)
(-0.00813898 0.0218415 0)
(-0.00663891 0.00825282 0)
(-0.00669795 0.00325193 0)
(-0.00404386 -0.000252903 0)
(-0.00770615 0.000674327 0)
(-0.00385656 0.000779671 0)
(-0.00861423 0.000238475 0)
(-0.00501165 0.00136781 0)
(-0.00873559 0.000256373 0)
(-0.00666395 0.0015967 0)
(-0.0090527 0.000121516 0)
(-0.00948032 0.000480227 0)
(-0.00820795 -0.000130831 0)
(-0.0123046 0.00113638 0)
(-0.0035763 0.0016683 0)
(-0.0138969 0.000378888 0)
(0.00460904 -0.00106806 0)
(-0.0100271 -0.00948317 0)
(0.00220079 -0.0526467 0)
(-0.00277064 0.0426931 0)
(-0.00326369 0.0253268 0)
(-0.00202836 0.00587614 0)
(-0.00327188 0.00403019 0)
(-0.00122404 0.00219263 0)
(-0.00583014 0.0021958 0)
(-0.00349297 0.00194421 0)
(-0.00681612 0.00243907 0)
(-0.00476946 0.00140501 0)
(-0.00620881 0.00263343 0)
(-0.00459308 0.00217733 0)
(-0.00393395 0.00335687 0)
(-0.00599189 0.00169921 0)
(-0.00213569 0.00124676 0)
(-0.00751734 -0.00128742 0)
(0.000713403 -0.00305238 0)
(-0.00594982 -0.00693028 0)
(0.000232091 -0.01868 0)
(-0.0104783 -0.0238239 0)
(0.00329792 -0.0582061 0)
(-0.00245174 0.0415571 0)
(-0.00142499 0.0223544 0)
(-0.00263384 0.00636739 0)
(-0.00269134 0.00239011 0)
(-0.00292757 0.00197923 0)
(-0.00436219 0.00224406 0)
(-0.00444852 0.00180129 0)
(-0.00512947 0.00133353 0)
(-0.0051802 0.000741361 0)
(-0.00408246 0.000331344 0)
(-0.00358967 -0.000798457 0)
(-0.000726426 0.00094873 0)
(-0.00515476 -0.000418916 0)
(0.0012481 4.71393e-05 0)
(-0.00633861 -0.000228575 0)
(0.000174328 -0.000975742 0)
(-0.00801662 0.00320431 0)
(0.00552535 -0.000303415 0)
(-0.00423808 -0.00465007 0)
(0.00558814 -0.0576705 0)
(-0.000989029 0.0456878 0)
(-0.00106663 0.0244298 0)
(-0.0017509 0.00712267 0)
(-0.00242588 0.0043631 0)
(-0.00412959 0.00364743 0)
(-0.00470535 0.00387926 0)
(-0.00574645 0.00281768 0)
(-0.00602475 0.0027261 0)
(-0.00630014 0.00101597 0)
(-0.00471767 0.000193502 0)
(-0.00362036 -0.000115024 0)
(-0.00132821 0.0045305 0)
(-0.0058933 0.000459864 0)
(0.000353808 0.0019121 0)
(-0.00700509 0.000735868 0)
(0.000314139 -0.00282975 0)
(-0.00762527 -0.0115651 0)
(0.00118629 -0.0225115 0)
(-0.00980872 -0.0267993 0)
(0.00535009 -0.0617101 0)
(-0.00169328 0.0433895 0)
(-7.89975e-05 0.0242776 0)
(-0.00142907 0.00782694 0)
(-0.00196983 0.00523525 0)
(-0.00283816 0.00447403 0)
(-0.00424129 0.00407735 0)
(-0.00499235 0.0036602 0)
(-0.00666643 0.00175164 0)
(-0.00589638 -2.39049e-05 0)
(-0.00136104 -0.00295571 0)
(-0.00172354 -0.00411462 0)
(-0.00116921 0.00203012 0)
(-0.00636896 -0.00128969 0)
(0.00146298 -0.000108815 0)
(-0.00733087 0.000884276 0)
(0.00391167 -0.00210681 0)
(-0.00713275 0.0043826 0)
(0.00273003 -6.01435e-05 0)
(-0.00517071 -0.00516293 0)
(0.00541279 -0.0600813 0)
(0.00061775 0.0462848 0)
(-0.00210291 0.0260649 0)
(-0.00144464 0.00734736 0)
(-0.00219839 0.00657193 0)
(-0.00410841 0.00486701 0)
(-0.00696425 0.00583937 0)
(-0.00701294 0.00501266 0)
(-0.007414 0.00260701 0)
(-0.00682443 -0.00310823 0)
(-0.00213144 -0.00476346 0)
(-0.00249978 0.00155188 0)
(-0.00654767 0.00828725 0)
(-0.00842349 -0.00107093 0)
(-0.00512545 0.00260943 0)
(-0.0077395 -0.000923145 0)
(-0.00481021 -0.00277793 0)
(-0.0118653 -0.00994454 0)
(2.67501e-05 -0.0243252 0)
(-0.00780905 -0.029467 0)
(0.00477143 -0.0650487 0)
(-0.00210712 0.0455687 0)
(0.00124211 0.0233341 0)
(-0.000537215 0.00913503 0)
(-0.00131994 0.00658842 0)
(-0.0029878 0.0102641 0)
(-0.00611776 0.00705004 0)
(-0.00765091 0.00500437 0)
(-0.00744626 0.00173912 0)
(-0.00562799 -0.00520971 0)
(-0.00500917 -0.00874483 0)
(-0.00479951 0.000301593 0)
(-0.00756044 0.00723562 0)
(-0.00691671 -0.00267738 0)
(-0.00286805 -0.0016649 0)
(-0.00797397 0.000995564 0)
(-0.00396693 5.95795e-05 0)
(-0.00556379 -0.000385965 0)
(-0.00112205 -0.0058228 0)
(-0.00418376 -0.0132613 0)
(0.00290863 -0.0623004 0)
(0.00176978 0.0459675 0)
(-0.000517917 0.0278555 0)
(0.000527726 0.00981539 0)
(-0.00231181 0.0105984 0)
(-0.00760042 0.00890999 0)
(-0.00537543 0.010379 0)
(-0.0112087 0.00666263 0)
(-0.0125292 0.000709558 0)
(-0.0138011 -0.00566322 0)
(-0.0160749 -0.00420541 0)
(-0.00997295 0.00607552 0)
(-0.0129209 0.00849003 0)
(-0.00836747 -0.00550453 0)
(-0.0058819 0.00409143 0)
(-0.00551334 0.00159968 0)
(-0.00156299 -0.00507013 0)
(-0.00192342 -0.0101292 0)
(0.00846522 -0.0232068 0)
(-0.00469489 -0.0337536 0)
(0.0038078 -0.0646943 0)
(-0.00106384 0.0450251 0)
(0.0021322 0.0226493 0)
(-0.000112023 0.0100958 0)
(-0.00473299 0.0128738 0)
(-0.00308061 0.0130044 0)
(-0.00458929 0.0102928 0)
(-0.00803661 0.0115723 0)
(-0.015662 0.00436664 0)
(-0.0185528 -0.00430988 0)
(-0.0194348 -0.0109893 0)
(-0.014576 -0.00279661 0)
(-0.00337257 0.00693841 0)
(0.00132075 -0.00980581 0)
(0.00451424 -0.006964 0)
(-0.00045106 -0.00243977 0)
(0.00463289 -0.0064146 0)
(-0.00579974 -0.0111372 0)
(0.00660327 -0.00604125 0)
(-0.00250351 -0.00555736 0)
(0.00330659 -0.0612052 0)
(0.000595199 0.0445603 0)
(-9.59531e-05 0.0274757 0)
(-0.00107878 0.0168634 0)
(0.00119438 0.0155386 0)
(0.00430533 0.010641 0)
(-0.00218971 0.0144097 0)
(-0.00720395 0.0183547 0)
(-0.011031 0.0101865 0)
(-0.0166926 0.000431362 0)
(-0.0154238 -0.0103917 0)
(-0.019329 -0.0118259 0)
(-0.00447226 -0.00747167 0)
(0.000934642 -0.010832 0)
(0.0042574 0.0056644 0)
(0.00226713 0.00256061 0)
(0.0103887 0.00189552 0)
(-0.00256952 -0.0104064 0)
(-0.00116109 -0.0245669 0)
(-0.00514183 -0.0297182 0)
(0.00476645 -0.0660201 0)
(-0.000397306 0.0430957 0)
(0.00100518 0.0237059 0)
(-0.000109166 0.00769538 0)
(0.00426923 0.00596309 0)
(0.00262612 0.0148692 0)
(0.00021776 0.0197072 0)
(-0.0013802 0.0196238 0)
(-0.000824402 0.0114476 0)
(-0.00711915 0.00329141 0)
(-0.00106813 -0.00997837 0)
(-0.00627631 -0.0130098 0)
(-0.00478934 -0.016819 0)
(0.00111874 -0.0230197 0)
(0.00550676 -0.00901586 0)
(0.000611169 -0.0093608 0)
(0.00956634 -0.0026658 0)
(-0.00519285 -0.000266563 0)
(-0.00181404 -0.00721062 0)
(-0.00567483 -0.0145095 0)
(0.00367565 -0.0639627 0)
(0.00183663 0.0456243 0)
(0.000526263 0.0293719 0)
(0.0043765 0.0148842 0)
(0.00152682 0.0146147 0)
(0.002576 0.0165343 0)
(0.00976918 0.0193944 0)
(0.00777896 0.0214255 0)
(0.0102431 0.0168753 0)
(0.00515545 0.00367404 0)
(0.010787 -0.0101019 0)
(0.000761518 -0.00692025 0)
(0.00321535 -0.0138044 0)
(0.00485104 -0.0139383 0)
(-0.00760765 0.00565157 0)
(0.00087807 0.002006 0)
(-0.00986307 0.00723859 0)
(-0.00271896 0.00103949 0)
(0.00416384 -0.0205715 0)
(-0.00512829 -0.0307121 0)
(0.00632393 -0.0670392 0)
(-0.00115216 0.0403627 0)
(0.000269496 0.0204907 0)
(0.00109809 0.00597259 0)
(0.00296813 0.005934 0)
(0.0101998 0.00680955 0)
(0.0115028 0.0123552 0)
(0.014442 0.0203627 0)
(0.0208961 0.0131195 0)
(0.017532 0.0048807 0)
(0.027531 -0.00771379 0)
(0.0136813 -0.00665058 0)
(0.0281321 -0.0179284 0)
(0.018666 -0.0175825 0)
(0.0177172 -0.00317393 0)
(0.0192913 -0.0108891 0)
(0.0108132 -6.59079e-06 0)
(0.0158583 -0.0144597 0)
(0.0136934 -0.0108998 0)
(-0.00833886 -0.0204089 0)
(0.00657391 -0.0647057 0)
(0.00242392 0.0439482 0)
(0.003336 0.0266022 0)
(0.00438229 0.0118675 0)
(0.0072949 0.00636798 0)
(0.00288397 0.00903429 0)
(0.0188968 0.0132724 0)
(0.0096889 0.014596 0)
(0.0301203 0.0103985 0)
(0.0211106 0.00238067 0)
(0.0371263 -0.00525432 0)
(0.0217699 -0.0108861 0)
(0.0424046 -0.0160889 0)
(0.00652524 -0.0123002 0)
(0.0273753 0.00725746 0)
(0.00870597 0.0113795 0)
(0.0103517 0.00762324 0)
(0.00198826 0.00709062 0)
(0.00896343 0.00448169 0)
(-0.00385127 -0.0145486 0)
(0.010854 -0.0644236 0)
(-0.000576806 0.0379168 0)
(0.00412536 0.0198822 0)
(0.00669682 0.00418471 0)
(0.00894809 0.00612917 0)
(0.00587351 -0.00347456 0)
(0.0158614 0.00328174 0)
(0.0189378 0.00945985 0)
(0.0221948 0.000398255 0)
(0.0322514 -0.000714875 0)
(0.0307777 -0.00960429 0)
(0.0319254 -0.00768875 0)
(0.0203836 0.0013943 0)
(-0.0117341 -0.00423313 0)
(-0.0122355 -0.00121515 0)
(-0.00565663 0.00481325 0)
(0.00307611 0.00227704 0)
(-0.0078947 -0.0140939 0)
(0.0222387 -0.0102762 0)
(-0.0120747 -0.028541 0)
(0.00979036 -0.0655085 0)
(0.00488828 0.0364913 0)
(0.00835496 0.0207794 0)
(0.00887354 0.00560787 0)
(0.0113929 0.00572883 0)
(0.0145098 0.00392121 0)
(0.00867989 -0.00138035 0)
(0.0218941 0.00501709 0)
(0.017439 -0.00212429 0)
(0.0296375 -0.00747029 0)
(0.0233927 -0.00845725 0)
(0.0298026 0.00379132 0)
(0.0248308 0.0155381 0)
(0.0289853 0.0204622 0)
(0.019729 0.00779083 0)
(0.0132165 -0.00692657 0)
(0.0201059 0.0098572 0)
(0.0101107 -0.00569291 0)
(0.00477571 0.00760064 0)
(-0.00134132 0.00817386 0)
(0.0170639 -0.0604678 0)
(0.00445718 0.026741 0)
(0.0133432 0.0152664 0)
(0.0170758 0.00321508 0)
(0.0114917 -0.000404305 0)
(0.0125232 -0.000751355 0)
(0.00889417 -0.00139288 0)
(0.00134192 4.8608e-05 0)
(0.00512773 -0.00398135 0)
(-0.0132417 -0.0100895 0)
(-0.0191147 -0.0102041 0)
(-0.0310925 -0.00524692 0)
(-0.0135538 0.00239187 0)
(-0.0157059 0.0036497 0)
(0.0063536 0.0101423 0)
(-0.00231479 0.00292063 0)
(-0.00199866 0.011405 0)
(0.0145085 -0.0023281 0)
(-0.0119371 -0.00331037 0)
(0.0297034 -0.0457266 0)
(0.0161799 -0.0664226 0)
(0.00862256 0.0177357 0)
(0.0311131 0.0129996 0)
(0.0346174 0.00939665 0)
(0.0474268 0.00838831 0)
(0.0413923 0.00780604 0)
(0.0541352 0.00648456 0)
(0.0477138 0.00902082 0)
(0.060785 0.00803204 0)
(0.0561533 0.0143559 0)
(0.0649084 0.0102147 0)
(0.058121 0.00892982 0)
(0.0642474 -0.00304637 0)
(0.0608905 0.00120359 0)
(0.0634047 -0.00642092 0)
(0.0638278 0.000434034 0)
(0.0684487 -0.00537972 0)
(0.0665095 0.00106009 0)
(0.0691545 -0.0024279 0)
(0.0566887 -0.00252145 0)
(0.0287037 0.00451913 0)
)
;

boundaryField
{
    movingWall
    {
        type            fixedValue;
        value           uniform (1 0 0);
    }
    fixedWalls
    {
        type            noSlip;
    }
    frontAndBack
    {
        type            empty;
    }
}


// ************************************************************************* //
