/*--------------------------------*- C++ -*----------------------------------*\
| =========                 |                                                 |
| \\      /  F ield         | OpenFOAM: The Open Source CFD Toolbox           |
|  \\    /   O peration     | Version:  5.x                                   |
|   \\  /    A nd           | Web:      www.OpenFOAM.org                      |
|    \\/     M anipulation  |                                                 |
\*---------------------------------------------------------------------------*/
FoamFile
{
    version     2.0;
    format      ascii;
    class       volVectorField;
    location    "5.2";
    object      U;
}
// * * * * * * * * * * * * * * * * * * * * * * * * * * * * * * * * * * * * * //

dimensions      [0 1 -1 0 0 0 0];

internalField   nonuniform List<vector> 
400
(
(-0.00020467 0.000207615 0)
(-0.000645065 0.000227806 0)
(-0.0011265 0.000246005 0)
(-0.00164943 0.000276227 0)
(-0.00224804 0.000322318 0)
(-0.00295797 0.000391928 0)
(-0.00383739 0.000500319 0)
(-0.00498006 0.000679002 0)
(-0.00654858 0.000995805 0)
(-0.00883842 0.00160613 0)
(-0.0123795 0.00286961 0)
(-0.0181278 0.00534308 0)
(-0.027945 0.00813771 0)
(-0.0440895 0.00566742 0)
(-0.0601621 -0.00365873 0)
(-0.0647893 -0.0087706 0)
(-0.0616313 -0.0077045 0)
(-0.0539122 -0.0104342 0)
(-0.0376242 -0.0154243 0)
(-0.00895473 -0.01355 0)
(-0.000213326 0.000639941 0)
(-0.000671541 0.00070083 0)
(-0.00116951 0.000754131 0)
(-0.00170445 0.000842263 0)
(-0.00230617 0.000975475 0)
(-0.00300047 0.00117333 0)
(-0.003824 0.00147132 0)
(-0.0048228 0.00193505 0)
(-0.00605003 0.00268904 0)
(-0.0075474 0.00397307 0)
(-0.00928716 0.00623366 0)
(-0.0110174 0.0101227 0)
(-0.0122821 0.0157714 0)
(-0.0145544 0.0203549 0)
(-0.0210814 0.0188131 0)
(-0.030998 0.0108939 0)
(-0.0392223 -0.000405821 0)
(-0.0360384 -0.0157499 0)
(-0.0257524 -0.0324166 0)
(-0.0146314 -0.0430699 0)
(-0.000197899 0.0010685 0)
(-0.000623694 0.0011684 0)
(-0.0010841 0.00125144 0)
(-0.00157168 0.00138706 0)
(-0.00210801 0.00158832 0)
(-0.0027064 0.00187909 0)
(-0.00338225 0.00229858 0)
(-0.00414585 0.00291001 0)
(-0.00499218 0.00381423 0)
(-0.00587437 0.00516704 0)
(-0.00664499 0.00719454 0)
(-0.00695984 0.0101667 0)
(-0.00627457 0.0141261 0)
(-0.00446894 0.0176144 0)
(-0.00347835 0.0176593 0)
(-0.00457052 0.0117607 0)
(-0.00739131 0.000601053 0)
(-0.00759611 -0.0151841 0)
(-0.0101777 -0.0343409 0)
(-0.00218874 -0.0545341 0)
(-0.000174702 0.00145363 0)
(-0.000552098 0.00158888 0)
(-0.000958153 0.00169386 0)
(-0.00138049 0.00186268 0)
(-0.00183217 0.00210736 0)
(-0.002315 0.00245004 0)
(-0.00282726 0.0029248 0)
(-0.00335552 0.00358182 0)
(-0.0038645 0.0044912 0)
(-0.00427815 0.00574465 0)
(-0.00444974 0.00744668 0)
(-0.00409237 0.00964896 0)
(-0.00290878 0.0123454 0)
(-0.000298857 0.0147045 0)
(0.00283545 0.0156819 0)
(0.0057894 0.0123609 0)
(0.00529937 0.00391758 0)
(0.00340923 -0.0101397 0)
(-0.0032543 -0.0298942 0)
(-0.00172774 -0.0521583 0)
(-0.000146616 0.0017876 0)
(-0.000466398 0.0019545 0)
(-0.000809715 0.00207366 0)
(-0.00115993 0.00226154 0)
(-0.00152316 0.00252675 0)
(-0.00189271 0.002886 0)
(-0.00225608 0.00336396 0)
(-0.00258804 0.00399347 0)
(-0.00284299 0.00481436 0)
(-0.00294177 0.00586524 0)
(-0.00278263 0.0071933 0)
(-0.00209455 0.00868219 0)
(-0.000921961 0.0104694 0)
(0.00146257 0.0116429 0)
(0.00415123 0.0122694 0)
(0.00738958 0.00963042 0)
(0.00801392 0.00355218 0)
(0.00716652 -0.00823786 0)
(0.00259736 -0.0321087 0)
(0.000500866 -0.0627378 0)
(-0.000115242 0.00206181 0)
(-0.000372092 0.00225843 0)
(-0.000649665 0.00238629 0)
(-0.000928013 0.0025831 0)
(-0.00120851 0.00285131 0)
(-0.00147898 0.00320211 0)
(-0.00172149 0.00364955 0)
(-0.00190753 0.00421235 0)
(-0.00199634 0.00491082 0)
(-0.0019033 0.00573201 0)
(-0.00164504 0.00676761 0)
(-0.00081395 0.00765967 0)
(0.000107455 0.00892722 0)
(0.00215549 0.00926591 0)
(0.00389307 0.00975267 0)
(0.00700892 0.00736345 0)
(0.00707573 0.00373975 0)
(0.00959203 -0.00546364 0)
(0.00219361 -0.0229559 0)
(0.00623298 -0.0489191 0)
(-8.04144e-05 0.00227098 0)
(-0.000271111 0.00249595 0)
(-0.000483631 0.00262961 0)
(-0.000695415 0.0028267 0)
(-0.000904878 0.00308744 0)
(-0.00109551 0.00341329 0)
(-0.00124743 0.00381372 0)
(-0.00132909 0.00428956 0)
(-0.00132856 0.00486878 0)
(-0.00108951 0.00543377 0)
(-0.000875491 0.0062813 0)
(5.99667e-05 0.00665985 0)
(0.000674749 0.00761177 0)
(0.00249703 0.00730134 0)
(0.00332481 0.0078205 0)
(0.00601727 0.00539468 0)
(0.00512334 0.00317385 0)
(0.00679084 -0.00448851 0)
(0.00138277 -0.0243844 0)
(-0.00368671 -0.0541843 0)
(-4.29242e-05 0.00240911 0)
(-0.000165522 0.00267402 0)
(-0.000317743 0.00281519 0)
(-0.0004705 0.00302747 0)
(-0.00062189 0.00327333 0)
(-0.000752878 0.00357538 0)
(-0.000845415 0.00391847 0)
(-0.00085193 0.00429442 0)
(-0.000853741 0.00479124 0)
(-0.000481921 0.00511615 0)
(-0.000421976 0.00585635 0)
(0.000544145 0.00593327 0)
(0.000776212 0.0067595 0)
(0.00251149 0.00612509 0)
(0.00246909 0.0068833 0)
(0.00523877 0.00453111 0)
(0.00352942 0.00354141 0)
(0.00677479 -0.00294912 0)
(0.000988488 -0.0180308 0)
(0.00268826 -0.0554514 0)
(1.06077e-05 0.00247477 0)
(-3.93349e-05 0.00277443 0)
(-0.000130217 0.0029258 0)
(-0.000238171 0.00311169 0)
(-0.000359244 0.0033506 0)
(-0.000452599 0.00359624 0)
(-0.000532265 0.00391466 0)
(-0.000458422 0.00417141 0)
(-0.000515919 0.00463257 0)
(-2.44697e-05 0.00474852 0)
(-8.26787e-05 0.00535846 0)
(0.000952417 0.00517444 0)
(0.000842785 0.00588186 0)
(0.00266679 0.00483121 0)
(0.00196373 0.00579014 0)
(0.00486203 0.00302569 0)
(0.0023265 0.00318926 0)
(0.00642861 -0.00295794 0)
(7.07281e-05 -0.0162211 0)
(0.00518858 -0.0491639 0)
(6.37243e-05 0.00242496 0)
(8.79992e-05 0.00283383 0)
(2.12266e-05 0.00303277 0)
(-4.55548e-05 0.00336822 0)
(-0.000131901 0.00357701 0)
(-0.00018444 0.00386979 0)
(-0.000264725 0.00408905 0)
(-0.000125352 0.00426958 0)
(-0.000272743 0.00461047 0)
(0.000260696 0.00463248 0)
(1.80163e-05 0.00511148 0)
(0.00109212 0.00485355 0)
(0.000497614 0.00555408 0)
(0.00250312 0.00458644 0)
(0.000825442 0.00568335 0)
(0.00435457 0.00340434 0)
(0.000554552 0.00374521 0)
(0.00552108 -0.00219859 0)
(-0.00159539 -0.0147052 0)
(0.00207252 -0.0498973 0)
(0.000208306 0.00234692 0)
(0.000352378 0.00288863 0)
(0.000396489 0.00302058 0)
(0.000304237 0.00313727 0)
(0.000131259 0.00335667 0)
(5.0241e-05 0.00345534 0)
(-0.000146869 0.00375383 0)
(5.21852e-05 0.00383546 0)
(-0.000172373 0.00417011 0)
(0.000460792 0.00414111 0)
(0.000100368 0.00451757 0)
(0.00135592 0.00411998 0)
(0.000507952 0.00473058 0)
(0.0027907 0.00338539 0)
(0.000749629 0.00468514 0)
(0.00447424 0.00155532 0)
(-0.000178969 0.00324665 0)
(0.00531433 -0.00262976 0)
(-0.00315125 -0.0130825 0)
(0.00229357 -0.0500494 0)
(0.000382584 0.00174209 0)
(0.000492956 0.0024781 0)
(0.000279786 0.00308843 0)
(0.000291806 0.00383298 0)
(0.000209325 0.00405229 0)
(0.000227639 0.00443931 0)
(0.000131058 0.00443076 0)
(0.000310675 0.0045439 0)
(4.98859e-05 0.00456622 0)
(0.00063017 0.0045345 0)
(3.60014e-05 0.00470378 0)
(0.00132332 0.00440921 0)
(-0.000117795 0.00492359 0)
(0.00247245 0.00410912 0)
(-0.000857941 0.00523632 0)
(0.00407913 0.00373866 0)
(-0.00227637 0.00439975 0)
(0.00565752 -0.000132972 0)
(-0.00428818 -0.0108218 0)
(0.00483365 -0.050766 0)
(0.000781691 0.00164838 0)
(0.00146433 0.00348979 0)
(0.00169959 0.00328164 0)
(0.00125403 0.00304894 0)
(0.000681782 0.00315977 0)
(0.000382976 0.00306233 0)
(-7.83378e-05 0.00334051 0)
(0.000151875 0.00341148 0)
(-0.000212239 0.00356013 0)
(0.000549245 0.00357601 0)
(-9.08521e-05 0.0036983 0)
(0.00148776 0.00345837 0)
(1.16409e-07 0.00370171 0)
(0.00304617 0.00284368 0)
(-0.000211599 0.00350671 0)
(0.00504849 0.00123399 0)
(-0.00163323 0.00262151 0)
(0.00650043 -0.00225453 0)
(-0.00635825 -0.0118533 0)
(0.00661791 -0.0499454 0)
(0.00210521 -0.000829978 0)
(0.00137405 0.00100503 0)
(0.000110967 0.00300683 0)
(0.000605645 0.00511396 0)
(0.000589162 0.00522456 0)
(0.00060613 0.00575517 0)
(0.000559563 0.00518362 0)
(0.000625921 0.00518346 0)
(0.000277935 0.00473063 0)
(0.000872572 0.00478701 0)
(5.09658e-06 0.00447437 0)
(0.00144602 0.00448005 0)
(-0.000569497 0.00441186 0)
(0.00229291 0.00428348 0)
(-0.0020287 0.00484188 0)
(0.00325444 0.00482665 0)
(-0.00510836 0.00501952 0)
(0.00681546 0.00396904 0)
(-0.00649283 -0.00866991 0)
(0.00705822 -0.0497942 0)
(0.00418177 -0.0016093 0)
(0.00442186 0.00685592 0)
(0.00385181 0.00426157 0)
(0.00156091 0.00275633 0)
(-0.000356489 0.00271033 0)
(-0.000669654 0.00228922 0)
(-0.00114822 0.00281252 0)
(-0.000730272 0.00288321 0)
(-0.000872751 0.00290109 0)
(-6.47372e-05 0.00301505 0)
(-0.000650967 0.00287511 0)
(0.000964462 0.00303771 0)
(-0.000624062 0.00273638 0)
(0.00274998 0.003083 0)
(-0.00142554 0.00219842 0)
(0.00638441 0.00259151 0)
(-0.00265303 -0.000995051 0)
(0.0075 -0.00211957 0)
(-0.00867716 -0.0140346 0)
(0.00736041 -0.0518645 0)
(0.00497717 -0.0113621 0)
(0.00537852 0.000532688 0)
(0.00423382 0.00565921 0)
(0.00583864 0.00916998 0)
(0.00528235 0.00773414 0)
(0.00350588 0.00759856 0)
(0.0027897 0.00584167 0)
(0.00248612 0.00565941 0)
(0.00159951 0.00486108 0)
(0.00227959 0.00511419 0)
(0.00090664 0.00417797 0)
(0.00280752 0.00502673 0)
(8.30715e-05 0.00351295 0)
(0.00390883 0.0055067 0)
(-0.00161579 0.002726 0)
(0.00221527 0.00625548 0)
(-0.00500391 0.00627205 0)
(0.00767449 0.00963065 0)
(-0.00686575 -0.00499766 0)
(0.00866767 -0.0508919 0)
(-0.00192518 -0.00997075 0)
(-0.00183462 0.0108149 0)
(-0.0131547 0.00107009 0)
(-0.00489055 0.0027292 0)
(-0.00994644 0.00416282 0)
(-0.00575405 0.0034185 0)
(-0.00656512 0.00336181 0)
(-0.00543482 0.00303426 0)
(-0.00463504 0.00267933 0)
(-0.00460588 0.00260596 0)
(-0.0034371 0.00214966 0)
(-0.00348 0.00251241 0)
(-0.00227749 0.00177062 0)
(-0.00307192 0.00304699 0)
(-0.00237142 0.00377624 0)
(0.00101354 0.00438637 0)
(-0.00678666 -0.00695252 0)
(0.0119121 -0.00164106 0)
(-0.00623187 -0.0179983 0)
(0.00890245 -0.0512765 0)
(-0.0129148 -0.0115096 0)
(0.0112613 0.0110017 0)
(0.00636208 0.00837627 0)
(0.00573404 0.00806124 0)
(0.00931373 0.00797834 0)
(0.00957931 0.00630633 0)
(0.010786 0.00515382 0)
(0.0121916 0.00498935 0)
(0.0115801 0.0043291 0)
(0.0131126 0.00478222 0)
(0.0105648 0.00373582 0)
(0.0133149 0.00493854 0)
(0.00808181 0.00315205 0)
(0.0141096 0.00738993 0)
(0.00529 -0.00140167 0)
(0.0170767 0.0104442 0)
(0.00259914 -0.00145359 0)
(0.00834135 0.00844458 0)
(-0.00123908 0.00424801 0)
(0.0125767 -0.0465644 0)
(-0.0213232 -0.00538082 0)
(-0.0134362 -0.00346214 0)
(-0.0225097 0.00384563 0)
(-0.0135604 -0.00105522 0)
(-0.021386 0.00124954 0)
(-0.0113861 0.000390892 0)
(-0.0209784 0.000773715 0)
(-0.00986614 0.00183802 0)
(-0.0192895 0.000937998 0)
(-0.0089153 0.00291066 0)
(-0.0161058 0.00155284 0)
(-0.00775916 0.00301008 0)
(-0.0123074 0.00152966 0)
(-0.00427985 0.00319512 0)
(-0.00636616 0.000477891 0)
(-0.00806691 0.00802506 0)
(0.00756 -0.00183064 0)
(-0.00933834 4.14492e-05 0)
(0.0171612 -0.0263155 0)
(0.0130161 -0.04777 0)
(0.000457993 0.0178012 0)
(0.0136392 0.0136898 0)
(0.0128191 0.00699857 0)
(0.0206535 0.00724264 0)
(0.0232123 0.0065788 0)
(0.0250481 0.00548806 0)
(0.0304503 0.00454182 0)
(0.0296315 0.00381398 0)
(0.0357507 0.00397905 0)
(0.0343217 0.00315227 0)
(0.0410004 0.00270052 0)
(0.0389899 0.00201033 0)
(0.0443403 0.00170334 0)
(0.0432222 0.00134944 0)
(0.0476296 0.00192026 0)
(0.0475916 4.16061e-05 0)
(0.0489791 -0.000196747 0)
(0.050671 -0.000206075 0)
(0.0418763 -0.0049406 0)
(0.0272494 -0.00523721 0)
)
;

boundaryField
{
    movingWall
    {
        type            fixedValue;
        value           uniform (1 0 0);
    }
    fixedWalls
    {
        type            noSlip;
    }
    frontAndBack
    {
        type            empty;
    }
}


// ************************************************************************* //
