/*--------------------------------*- C++ -*----------------------------------*\
| =========                 |                                                 |
| \\      /  F ield         | OpenFOAM: The Open Source CFD Toolbox           |
|  \\    /   O peration     | Version:  5.x                                   |
|   \\  /    A nd           | Web:      www.OpenFOAM.org                      |
|    \\/     M anipulation  |                                                 |
\*---------------------------------------------------------------------------*/
FoamFile
{
    version     2.0;
    format      ascii;
    class       surfaceScalarField;
    location    "15.5";
    object      phi;
}
// * * * * * * * * * * * * * * * * * * * * * * * * * * * * * * * * * * * * * //

dimensions      [0 3 -1 0 0 0 0];

internalField   nonuniform List<scalar> 
760
(
-1.03562e-06
1.03562e-06
-1.78526e-06
7.4964e-07
-2.07972e-06
2.94463e-07
-2.29428e-06
2.14559e-07
-2.35465e-06
6.03719e-08
-2.43448e-06
7.98288e-08
-2.48423e-06
4.97461e-08
-2.53053e-06
4.6307e-08
-2.60104e-06
7.05042e-08
-2.65337e-06
5.2327e-08
-2.72444e-06
7.10779e-08
-2.76627e-06
4.18309e-08
-2.80765e-06
4.13749e-08
-2.80226e-06
-5.39435e-09
-2.80062e-06
-1.63761e-09
-2.7297e-06
-7.09189e-08
-2.64744e-06
-8.22616e-08
-2.19558e-06
-4.51856e-07
-1.49822e-06
-6.97359e-07
-1.49822e-06
-6.14074e-07
1.64969e-06
-9.24004e-07
1.05957e-06
-1.05617e-06
4.26627e-07
-1.07242e-06
2.30814e-07
-1.06007e-06
4.80163e-08
-1.09709e-06
1.16852e-07
-1.0932e-06
4.58521e-08
-1.12859e-06
8.17059e-08
-1.13153e-06
7.34439e-08
-1.14789e-06
6.86774e-08
-1.14916e-06
7.23564e-08
-1.1315e-06
2.41698e-08
-1.12736e-06
3.72366e-08
-1.1281e-06
-4.65953e-09
-1.18498e-06
5.5239e-08
-1.21137e-06
-4.45233e-08
-1.20969e-06
-8.39385e-08
-1.23396e-06
-4.27592e-07
-1.01705e-06
-9.14267e-07
-2.51527e-06
-3.1018e-07
1.95987e-06
-3.98953e-07
1.14834e-06
-3.28468e-07
3.56142e-07
-2.86588e-07
1.88934e-07
-3.03387e-07
6.48153e-08
-2.87046e-07
1.00511e-07
-3.24662e-07
8.3468e-08
-3.38444e-07
9.54879e-08
-3.5973e-07
9.47301e-08
-3.90694e-07
9.96414e-08
-4.25767e-07
1.07429e-07
-4.71851e-07
7.02533e-08
-4.87692e-07
5.30772e-08
-5.07782e-07
1.54309e-08
-4.44719e-07
-7.82443e-09
-4.29413e-07
-5.98288e-08
-2.60943e-07
-2.52408e-07
-1.33742e-07
-5.54794e-07
-2.74477e-07
-7.73532e-07
-2.78975e-06
-1.26826e-07
2.0867e-06
-1.49115e-07
1.17063e-06
-1.013e-07
3.08327e-07
-9.43293e-08
1.81963e-07
-1.57822e-07
1.28308e-07
-1.96739e-07
1.39428e-07
-2.31311e-07
1.1804e-07
-2.53388e-07
1.17565e-07
-2.46614e-07
8.79555e-08
-2.44294e-07
9.7321e-08
-2.09696e-07
7.28323e-08
-2.43867e-07
1.04424e-07
-2.23593e-07
3.28034e-08
-2.39082e-07
3.09197e-08
-1.9073e-07
-5.61768e-08
-1.49885e-07
-1.00674e-07
-2.33274e-07
-1.69019e-07
-2.84093e-07
-5.03975e-07
-2.38306e-07
-8.19319e-07
-3.02806e-06
-6.66219e-08
2.15332e-06
-7.33306e-08
1.17734e-06
-9.52786e-08
3.30275e-07
-1.06021e-07
1.92706e-07
-1.44128e-07
1.66415e-07
-1.81518e-07
1.76817e-07
-2.0232e-07
1.38843e-07
-2.12152e-07
1.27397e-07
-1.98492e-07
7.42951e-08
-1.48883e-07
4.77124e-08
-1.08991e-07
3.29401e-08
-1.414e-07
1.36833e-07
-1.13589e-07
4.99229e-09
-1.44351e-07
6.16822e-08
-2.1002e-07
9.49174e-09
-2.28538e-07
-8.21556e-08
-1.36149e-07
-2.61407e-07
-4.03663e-08
-5.99757e-07
-2.15518e-08
-8.38134e-07
-3.04961e-06
-3.1208e-08
2.18453e-06
-6.38533e-08
1.20999e-06
-8.76004e-08
3.54022e-07
-1.48357e-07
2.53463e-07
-1.93719e-07
2.11776e-07
-2.26075e-07
2.09174e-07
-2.56002e-07
1.6877e-07
-2.55587e-07
1.26983e-07
-2.37248e-07
5.59557e-08
-1.70148e-07
-1.93875e-08
-1.27377e-07
-9.83101e-09
-1.70183e-07
1.79639e-07
-1.48993e-07
-1.61977e-08
-1.65804e-07
7.84927e-08
-1.90378e-07
3.40657e-08
-1.74552e-07
-9.79809e-08
-2.3582e-07
-2.0014e-07
-2.45038e-07
-5.9054e-07
-1.44488e-07
-9.38684e-07
-3.1941e-06
-2.81512e-08
2.21268e-06
-1.55925e-08
1.19743e-06
-6.5475e-08
4.03905e-07
-1.03441e-07
2.91429e-07
-1.34615e-07
2.42951e-07
-1.89911e-07
2.64469e-07
-2.47327e-07
2.26186e-07
-2.33876e-07
1.13532e-07
-1.11983e-07
-6.5937e-08
-3.64131e-08
-9.49578e-08
-1.07535e-07
6.12905e-08
-1.90001e-07
2.62106e-07
-1.27392e-07
-7.8807e-08
-1.48511e-07
9.96116e-08
-1.17749e-07
3.30374e-09
-1.0339e-07
-1.1234e-07
-1.47629e-07
-1.55901e-07
-5.45216e-08
-6.83647e-07
1.4677e-08
-1.00788e-06
-3.17942e-06
-2.41538e-08
2.23683e-06
-8.28181e-08
1.25609e-06
-9.2834e-08
4.13921e-07
-1.48753e-07
3.47349e-07
-2.53682e-07
3.4788e-07
-2.85235e-07
2.96022e-07
-2.93565e-07
2.34516e-07
-2.62972e-07
8.29384e-08
-1.5081e-07
-1.78099e-07
-1.0883e-07
-1.36938e-07
-2.89245e-07
2.41706e-07
-4.08835e-07
3.81696e-07
-3.42483e-07
-1.45159e-07
-3.1239e-07
6.95179e-08
-3.52613e-07
4.35269e-08
-3.84727e-07
-8.02257e-08
-2.69798e-07
-2.7083e-07
-1.8976e-07
-7.63685e-07
-7.73994e-08
-1.12024e-06
-3.25682e-06
-2.61211e-08
2.26295e-06
-1.91802e-08
1.24915e-06
-6.03805e-08
4.55121e-07
-9.35348e-08
3.80503e-07
-1.98073e-07
4.52418e-07
-2.8327e-07
3.81219e-07
-2.67206e-07
2.18452e-07
-2.16344e-07
3.20766e-08
-2.15058e-07
-1.79385e-07
-2.86496e-07
-6.55002e-08
-3.92577e-07
3.47787e-07
-3.72145e-07
3.61264e-07
-2.13769e-07
-3.03535e-07
-2.29315e-07
8.50639e-08
-2.46538e-07
6.07493e-08
-1.31303e-07
-1.9546e-07
-4.47845e-08
-3.57348e-07
-2.90339e-08
-7.79435e-07
-3.02925e-08
-1.11898e-06
-3.28711e-06
-2.05751e-08
2.28353e-06
-4.51809e-08
1.27376e-06
-4.79104e-08
4.5785e-07
-1.99479e-07
5.32072e-07
-3.12102e-07
5.65041e-07
-4.18891e-07
4.88008e-07
-5.44484e-07
3.44044e-07
-6.09763e-07
9.7356e-08
-6.87627e-07
-1.0152e-07
-6.29922e-07
-1.23206e-07
-6.23329e-07
3.41194e-07
-5.62535e-07
3.00469e-07
-3.3468e-07
-5.3139e-07
-2.2847e-07
-2.11461e-08
-1.27461e-07
-4.02602e-08
-6.90077e-08
-2.53913e-07
1.47739e-07
-5.74095e-07
1.64745e-07
-7.96441e-07
-2.04769e-08
-9.33763e-07
-3.30759e-06
9.32646e-09
2.2742e-06
3.22887e-08
1.25079e-06
-1.13188e-07
6.03327e-07
-2.6945e-07
6.88334e-07
-2.82091e-07
5.77682e-07
-3.37298e-07
5.43215e-07
-6.30613e-07
6.3736e-07
-8.63101e-07
3.29844e-07
-9.62618e-07
-2.00353e-09
-7.6277e-07
-3.23054e-07
-3.81953e-07
-3.96227e-08
-1.06829e-07
2.53453e-08
1.35413e-07
-7.73631e-07
1.55723e-07
-4.14559e-08
1.18506e-07
-3.04328e-09
-7.82344e-08
-5.71727e-08
-1.735e-07
-4.7883e-07
-7.73471e-08
-8.92594e-07
-1.05428e-08
-1.00057e-06
-3.31813e-06
3.82434e-08
2.23596e-06
1.30374e-08
1.276e-06
-3.82573e-08
6.54621e-07
3.56146e-08
6.14462e-07
4.74642e-08
5.65832e-07
-1.5654e-07
7.47219e-07
-4.62779e-07
9.43599e-07
-6.96346e-07
5.63411e-07
-9.14079e-07
2.15729e-07
-8.98488e-07
-3.38645e-07
-5.79894e-07
-3.58216e-07
-1.21386e-07
-4.33162e-07
7.59198e-08
-9.70937e-07
1.26008e-07
-9.15437e-08
2.82775e-07
-1.5981e-07
2.48841e-07
-2.32387e-08
-1.18889e-07
-1.111e-07
-2.23413e-07
-7.88069e-07
-3.27046e-08
-1.19128e-06
-3.35083e-06
5.83043e-09
2.23013e-06
-6.13242e-09
1.28796e-06
7.10601e-08
5.77429e-07
2.35565e-07
4.49957e-07
1.46706e-07
6.54691e-07
1.70426e-08
8.76882e-07
-8.2518e-09
9.68894e-07
-1.50756e-07
7.05915e-07
-2.37185e-07
3.02159e-07
-2.2346e-07
-3.5237e-07
-2.73961e-07
-3.07715e-07
-1.01007e-07
-6.06116e-07
5.69123e-08
-1.12886e-06
7.63985e-08
-1.1103e-07
1.87149e-07
-2.70561e-07
1.42786e-07
2.11242e-08
-4.02739e-08
7.19598e-08
-7.37856e-08
-7.54558e-07
-3.25117e-08
-1.23255e-06
-3.38335e-06
1.01046e-07
2.12908e-06
1.15944e-07
1.27306e-06
1.71326e-07
5.22047e-07
1.50404e-07
4.70879e-07
2.65074e-07
5.40021e-07
4.64679e-07
6.77276e-07
5.13806e-07
9.19767e-07
4.76386e-07
7.43335e-07
3.96049e-07
3.82496e-07
3.23076e-07
-2.79397e-07
2.09262e-07
-1.939e-07
2.64876e-07
-6.61731e-07
1.77276e-08
-8.81708e-07
-1.06339e-07
1.30371e-08
-1.43705e-07
-2.33195e-07
-2.0029e-07
7.77093e-08
1.88238e-07
-3.16569e-07
1.27063e-07
-6.93383e-07
4.18131e-08
-1.1473e-06
-3.34153e-06
-4.21174e-09
2.1333e-06
4.41046e-08
1.22475e-06
8.00393e-08
4.86113e-07
2.78258e-07
2.72661e-07
4.89314e-07
3.28965e-07
7.46264e-07
4.20327e-07
9.56851e-07
7.0918e-07
1.02993e-06
6.70251e-07
1.1167e-06
2.95728e-07
1.05467e-06
-2.17362e-07
1.09159e-06
-2.30823e-07
1.12545e-06
-6.95593e-07
1.04706e-06
-8.03316e-07
1.07996e-06
-1.98612e-08
8.80387e-07
-3.36248e-08
8.44987e-07
1.13109e-07
7.87813e-07
-2.59395e-07
2.42206e-07
-1.47776e-07
-2.1105e-08
-8.83989e-07
-3.36264e-06
1.31407e-07
2.00189e-06
1.38126e-07
1.21803e-06
2.13868e-07
4.1037e-07
2.10221e-07
2.76308e-07
4.91611e-07
4.75747e-08
7.40138e-07
1.718e-07
9.66684e-07
4.82634e-07
1.25977e-06
3.77164e-07
1.42186e-06
1.3364e-07
1.41159e-06
-2.07095e-07
1.51861e-06
-3.37838e-07
1.27497e-06
-4.51954e-07
9.84564e-07
-5.1291e-07
9.39281e-07
2.54218e-08
5.18336e-07
3.8732e-07
2.29764e-07
4.01681e-07
1.28623e-07
-1.58254e-07
2.60044e-08
-4.51572e-08
1.05448e-07
-9.63432e-07
-3.25719e-06
1.16157e-07
1.88573e-06
2.16098e-07
1.11809e-06
3.53515e-07
2.72953e-07
3.76084e-07
2.53739e-07
4.29933e-07
-6.2747e-09
7.46316e-07
-1.44583e-07
9.12373e-07
3.16577e-07
1.24844e-06
4.11017e-08
1.51431e-06
-1.32239e-07
1.63187e-06
-3.24656e-07
1.38641e-06
-9.23765e-08
4.91965e-07
4.42494e-07
-4.96366e-07
4.75421e-07
-6.41565e-07
1.70621e-07
-1.30658e-07
-1.23587e-07
-9.42628e-08
3.65286e-07
3.06945e-07
-5.59462e-07
2.66311e-07
-4.52343e-09
-3.48306e-08
-6.62291e-07
-3.29202e-06
3.19483e-07
1.56625e-06
4.62933e-07
9.7464e-07
4.6732e-07
2.68565e-07
6.67128e-07
5.39317e-08
6.26753e-07
3.41008e-08
6.89301e-07
-2.07132e-07
9.34571e-07
7.13076e-08
1.04514e-06
-6.94643e-08
1.26708e-06
-3.54183e-07
1.34834e-06
-4.05919e-07
1.32884e-06
-7.28716e-08
1.33902e-06
4.32311e-07
1.23332e-06
5.81121e-07
9.11771e-07
4.92171e-07
9.62106e-07
-1.73921e-07
9.04526e-07
4.22866e-07
5.41361e-07
-1.96297e-07
2.25078e-07
3.1176e-07
4.29123e-07
-8.66336e-07
-2.8629e-06
4.81099e-07
1.08515e-06
8.01003e-07
6.54737e-07
7.54834e-07
3.14734e-07
6.33555e-07
1.75211e-07
5.05014e-07
1.62641e-07
1.97142e-07
1.0074e-07
4.04017e-08
2.28048e-07
-2.03476e-07
1.74414e-07
-6.78135e-07
1.20475e-07
-1.09379e-06
9.74047e-09
-1.19441e-06
2.77468e-08
-7.52737e-07
-9.3631e-09
-2.66851e-07
9.52345e-08
1.44928e-07
8.03923e-08
-1.32529e-07
1.03535e-07
2.06262e-07
8.40749e-08
3.29397e-08
-2.29748e-08
4.6861e-07
-1.2391e-07
1.06512e-06
-1.46284e-06
-1.79778e-06
1.08515e-06
1.73988e-06
2.05462e-06
2.22983e-06
2.39247e-06
2.49321e-06
2.72126e-06
2.89567e-06
3.01615e-06
3.02589e-06
3.05364e-06
3.04427e-06
3.13951e-06
3.2199e-06
3.32343e-06
3.40751e-06
3.38453e-06
3.26062e-06
1.79778e-06
)
;

boundaryField
{
    movingWall
    {
        type            calculated;
        value           uniform 0;
    }
    fixedWalls
    {
        type            calculated;
        value           uniform 0;
    }
    frontAndBack
    {
        type            empty;
        value           nonuniform 0();
    }
}


// ************************************************************************* //
