/*--------------------------------*- C++ -*----------------------------------*\
| =========                 |                                                 |
| \\      /  F ield         | OpenFOAM: The Open Source CFD Toolbox           |
|  \\    /   O peration     | Version:  5.x                                   |
|   \\  /    A nd           | Web:      www.OpenFOAM.org                      |
|    \\/     M anipulation  |                                                 |
\*---------------------------------------------------------------------------*/
FoamFile
{
    version     2.0;
    format      ascii;
    class       volScalarField;
    location    "14.7";
    object      p;
}
// * * * * * * * * * * * * * * * * * * * * * * * * * * * * * * * * * * * * * //

dimensions      [0 2 -2 0 0 0 0];

internalField   nonuniform List<scalar> 
400
(
-2.43346e-09
-0.000500576
-0.000842408
-0.00104886
-0.00115422
-0.00120242
-0.00122936
-0.00123525
-0.00123929
-0.0012343
-0.0012345
-0.00123576
-0.00122702
-0.00123165
-0.00121378
-0.00116267
-0.00102726
-0.000740369
-0.000551572
0.000626962
-0.000544986
-0.000866395
-0.00106453
-0.00116829
-0.00120766
-0.00122212
-0.00123091
-0.00123951
-0.00122903
-0.0012428
-0.00123133
-0.00124833
-0.00124894
-0.00123656
-0.00125227
-0.00119795
-0.0012435
-0.00109924
-0.00112226
-0.000275963
-0.000849304
-0.00108953
-0.00115656
-0.00121073
-0.00122258
-0.00123234
-0.00123919
-0.00124277
-0.00124617
-0.00124345
-0.0012429
-0.00124573
-0.00125503
-0.00124438
-0.00125773
-0.00121603
-0.00124548
-0.00117525
-0.00115308
-0.000812407
-0.00103591
-0.00117744
-0.0011914
-0.00121397
-0.00122778
-0.00123272
-0.00124062
-0.00124605
-0.00124867
-0.00125055
-0.00125064
-0.00125259
-0.00126765
-0.00125117
-0.00127362
-0.00123142
-0.00127623
-0.00120963
-0.00133799
-0.00112084
-0.00115213
-0.00122164
-0.00123553
-0.00123624
-0.0012388
-0.00124398
-0.00124857
-0.00125255
-0.00125735
-0.00125557
-0.00126126
-0.00126176
-0.00127335
-0.00126348
-0.00127626
-0.00124351
-0.00128319
-0.00124621
-0.0012629
-0.00120014
-0.00121966
-0.00127613
-0.00125819
-0.00125148
-0.00124905
-0.00125265
-0.0012578
-0.0012618
-0.00126749
-0.0012657
-0.00127203
-0.00126496
-0.00128113
-0.00126376
-0.0012852
-0.00124808
-0.00128961
-0.0012406
-0.00130186
-0.00123208
-0.00125889
-0.00127002
-0.00126375
-0.00125546
-0.00125238
-0.00125813
-0.0012658
-0.00127153
-0.00127922
-0.00127702
-0.00131252
-0.00128851
-0.00129717
-0.0012885
-0.00129722
-0.00128013
-0.00128681
-0.00124264
-0.00127735
-0.00121723
-0.00125599
-0.00126164
-0.00126742
-0.0012607
-0.00126568
-0.00127383
-0.00128484
-0.00129382
-0.00129984
-0.00129909
-0.00132907
-0.0013077
-0.00130045
-0.00128322
-0.00128449
-0.00127536
-0.00130292
-0.00125339
-0.00127473
-0.00125703
-0.00124697
-0.00127436
-0.00125853
-0.00127326
-0.00127307
-0.0012904
-0.00130474
-0.00131464
-0.00132345
-0.00134953
-0.00140237
-0.00135922
-0.00133139
-0.00132626
-0.00133381
-0.00132009
-0.00132711
-0.00130021
-0.00131869
-0.00132571
-0.0012599
-0.00123681
-0.00126036
-0.00127532
-0.00129555
-0.00131715
-0.0013511
-0.00137703
-0.00138004
-0.00139755
-0.00140632
-0.00139066
-0.00133204
-0.00130097
-0.00131988
-0.00131201
-0.00133821
-0.00133829
-0.00136448
-0.00136547
-0.00125534
-0.00128672
-0.00128095
-0.00130782
-0.00132377
-0.00134905
-0.00142391
-0.00148253
-0.00151973
-0.00148162
-0.00142446
-0.00136376
-0.00135624
-0.00133529
-0.00138535
-0.00137155
-0.00138111
-0.00137471
-0.00135376
-0.00133064
-0.00128384
-0.00129954
-0.00129906
-0.00130972
-0.00133556
-0.00138769
-0.00152761
-0.00164233
-0.0017213
-0.00162662
-0.00148071
-0.0012856
-0.00127516
-0.00126345
-0.00129275
-0.00128943
-0.00129887
-0.00128131
-0.0012685
-0.00128823
-0.00128326
-0.00129401
-0.0012972
-0.00132016
-0.00136964
-0.00143385
-0.00166806
-0.00183499
-0.00192162
-0.00176186
-0.00156106
-0.00135954
-0.0014115
-0.00135239
-0.00137016
-0.00132695
-0.00126366
-0.00126427
-0.00127859
-0.00129143
-0.00123501
-0.00126267
-0.00126684
-0.00126918
-0.00132625
-0.00142981
-0.001677
-0.0018399
-0.00191494
-0.00180101
-0.00157871
-0.00136693
-0.00121635
-0.00128594
-0.00127396
-0.00134974
-0.00132475
-0.00124802
-0.00128343
-0.00128464
-0.00118744
-0.00120525
-0.00122425
-0.00124366
-0.00127494
-0.00137082
-0.00158312
-0.00175789
-0.00186617
-0.00177675
-0.00155161
-0.00137475
-0.00119438
-0.00130263
-0.00133231
-0.00136959
-0.00154413
-0.00140111
-0.0014559
-0.00125011
-0.00109522
-0.00113352
-0.0011581
-0.00116827
-0.00119917
-0.0012695
-0.00141784
-0.0015702
-0.00164868
-0.00164122
-0.00157171
-0.00139641
-0.00139087
-0.00145893
-0.00125432
-0.0012163
-0.00119052
-0.00112827
-0.00109555
-0.00108409
-0.000951103
-0.00103371
-0.00107051
-0.00109869
-0.0011387
-0.00117392
-0.0012445
-0.00137859
-0.00146059
-0.00151086
-0.00145074
-0.00117707
-0.00155384
-0.00153374
-0.00124641
-0.00133526
-0.00138523
-0.00126362
-0.00141873
-0.000953359
-0.000820861
-0.000915939
-0.00102394
-0.00104359
-0.00108922
-0.00111528
-0.0011557
-0.00127361
-0.00142148
-0.0017016
-0.00177183
-0.00159987
-0.00145263
-0.00124141
-0.00127841
-0.00134534
-0.0011846
-0.000895019
-0.000888643
-0.000498901
-0.000560222
-0.000802939
-0.00091679
-0.000997901
-0.00105286
-0.00107273
-0.00109873
-0.00105417
-0.00136065
-0.00194449
-0.00210753
-0.00157343
-0.00137027
-0.00115828
-0.00131717
-0.00130209
-0.00118352
-0.00151087
-0.00100576
-0.000487386
-0.000284971
-0.000579214
-0.000810376
-0.000949289
-0.00107789
-0.00118855
-0.00126925
-0.00132988
-0.00134241
-0.00142094
-0.00140263
-0.00132172
-0.00119221
-0.00127905
-0.00147797
-0.00152623
-0.00130608
-0.000773127
4.06945e-05
0.00188666
)
;

boundaryField
{
    movingWall
    {
        type            zeroGradient;
    }
    fixedWalls
    {
        type            zeroGradient;
    }
    frontAndBack
    {
        type            empty;
    }
}


// ************************************************************************* //
