/*--------------------------------*- C++ -*----------------------------------*\
| =========                 |                                                 |
| \\      /  F ield         | OpenFOAM: The Open Source CFD Toolbox           |
|  \\    /   O peration     | Version:  5.x                                   |
|   \\  /    A nd           | Web:      www.OpenFOAM.org                      |
|    \\/     M anipulation  |                                                 |
\*---------------------------------------------------------------------------*/
FoamFile
{
    version     2.0;
    format      ascii;
    class       volVectorField;
    location    "14.7";
    object      U;
}
// * * * * * * * * * * * * * * * * * * * * * * * * * * * * * * * * * * * * * //

dimensions      [0 1 -1 0 0 0 0];

internalField   nonuniform List<vector> 
400
(
(-0.0145656 0.00702918 0)
(-0.0316951 0.00422221 0)
(-0.0394268 0.00331501 0)
(-0.0426693 2.89743e-05 0)
(-0.0456497 0.000943494 0)
(-0.045802 -0.00114771 0)
(-0.0471962 0.000265456 0)
(-0.0469262 -0.00108541 0)
(-0.0470133 2.32192e-05 0)
(-0.047938 0.000253417 0)
(-0.0466355 -0.000408704 0)
(-0.0498569 0.000951835 0)
(-0.0463473 -0.0011316 0)
(-0.0516697 0.00112978 0)
(-0.0477615 -0.00108139 0)
(-0.0515163 0.000277489 0)
(-0.0473429 -0.00125019 0)
(-0.0442868 -0.0042455 0)
(-0.0443844 -0.00844126 0)
(-0.00370978 -0.0189174 0)
(-0.007667 0.031402 0)
(-0.0183662 0.0215746 0)
(-0.0185408 0.00761226 0)
(-0.0212261 0.00551551 0)
(-0.0203131 0.00161997 0)
(-0.0202759 0.00191086 0)
(-0.020297 0.000515984 0)
(-0.0217489 0.00108627 0)
(-0.0189454 0.000342975 0)
(-0.0242553 0.000431776 0)
(-0.0163747 0.000725429 0)
(-0.0264674 0.000434752 0)
(-0.0162348 0.00139154 0)
(-0.0254418 -0.000363506 0)
(-0.0174626 0.00102847 0)
(-0.0222967 -0.00176711 0)
(-0.0222885 -0.00128355 0)
(-0.0191561 -0.0107801 0)
(-0.0323243 -0.0215887 0)
(-0.00318672 -0.0428102 0)
(-0.00695637 0.0369306 0)
(-0.00689117 0.0212541 0)
(-0.00736359 0.00835367 0)
(-0.00684301 0.00327204 0)
(-0.0042459 -0.000486455 0)
(-0.00779994 -0.000493688 0)
(-0.00360727 0.000249703 0)
(-0.00851794 -0.000659378 0)
(-0.00473142 0.000393587 0)
(-0.00810382 -0.000321329 0)
(-0.00644022 0.000406416 0)
(-0.00775426 0.000697216 0)
(-0.00960494 -0.000156379 0)
(-0.00694357 -0.000270133 0)
(-0.0126257 -0.000704372 0)
(-0.00334307 0.00102854 0)
(-0.0136102 0.00163029 0)
(0.00184282 0.00129118 0)
(-0.00980506 -0.00652988 0)
(0.000776478 -0.0519034 0)
(-0.00227372 0.042703 0)
(-0.00478126 0.0257815 0)
(-0.00262664 0.00578771 0)
(-0.00485516 0.00343055 0)
(-0.00169093 0.00187044 0)
(-0.00621883 0.0017033 0)
(-0.00416792 0.0013112 0)
(-0.00709801 0.0019897 0)
(-0.00558981 0.000583631 0)
(-0.00653337 0.0017229 0)
(-0.00559514 0.00082017 0)
(-0.00390605 0.00274035 0)
(-0.00617605 0.00144748 0)
(-0.00191976 0.00124014 0)
(-0.00721282 -0.000916391 0)
(-0.000525088 -0.00308716 0)
(-0.00537836 -0.00484392 0)
(-0.00116433 -0.0171988 0)
(-0.0109676 -0.0231662 0)
(0.00323239 -0.0568417 0)
(-0.00165154 0.0428915 0)
(-0.00228025 0.0222332 0)
(-0.0033121 0.00664365 0)
(-0.00319428 0.00154115 0)
(-0.00369724 0.00101978 0)
(-0.00477413 0.00136504 0)
(-0.00520548 0.00110184 0)
(-0.0057107 0.000681946 0)
(-0.0059515 -0.000156713 0)
(-0.00506098 -0.000285345 0)
(-0.00463513 -0.00203575 0)
(-0.00070109 0.000527046 0)
(-0.00539738 -0.000976337 0)
(0.00135664 -0.000562067 0)
(-0.00557057 -0.000381637 0)
(0.000382877 -0.00227618 0)
(-0.00708491 0.00442346 0)
(0.00525261 0.00301247 0)
(-0.00286437 -0.00294539 0)
(0.00368659 -0.0576041 0)
(-0.00134347 0.046131 0)
(-0.00127801 0.0266527 0)
(-0.000621106 0.00723362 0)
(-0.00207561 0.00402183 0)
(-0.00403992 0.00322721 0)
(-0.00501991 0.00351552 0)
(-0.00613812 0.00242325 0)
(-0.00683582 0.00238034 0)
(-0.00716247 0.000460658 0)
(-0.00624052 -0.000190675 0)
(-0.00477527 -0.00282472 0)
(-0.00120838 0.00333016 0)
(-0.00618887 1.29517e-05 0)
(0.000337341 0.00089919 0)
(-0.00649748 0.000842651 0)
(-0.00015562 -0.00247604 0)
(-0.00743287 -0.00886403 0)
(0.00290242 -0.021006 0)
(-0.00776133 -0.0248071 0)
(0.00506774 -0.0601513 0)
(-4.18016e-06 0.0448989 0)
(-0.000212493 0.024765 0)
(-0.000336441 0.00719971 0)
(-0.00162592 0.00526589 0)
(-0.00275449 0.00408009 0)
(-0.00521033 0.00361103 0)
(-0.00558734 0.00345448 0)
(-0.00763723 0.00146517 0)
(-0.00768035 -0.000152387 0)
(-0.00492795 -0.0031104 0)
(-0.00271936 -0.00723755 0)
(0.000190566 0.000747196 0)
(-0.00639734 -0.00180999 0)
(0.00173243 -0.00143018 0)
(-0.00675215 0.0011882 0)
(0.00518704 -0.00353818 0)
(-0.00553093 0.00323615 0)
(0.00363328 0.00107212 0)
(-0.00421721 -0.00121529 0)
(0.00513912 -0.0576835 0)
(-0.000216747 0.0469102 0)
(0.000511609 0.0250384 0)
(-0.000468967 0.00806167 0)
(-0.0014118 0.00630342 0)
(-0.00389731 0.00605333 0)
(-0.0070829 0.00587214 0)
(-0.00865549 0.00479467 0)
(-0.00872872 0.00376769 0)
(-0.00952829 -0.00159267 0)
(-0.00486073 -0.00609023 0)
(-0.00189085 -0.00580738 0)
(-0.00479831 0.00688289 0)
(-0.00742586 -0.000498858 0)
(-0.00457373 0.000927067 0)
(-0.00767327 -0.0017278 0)
(-0.00201981 -0.00301742 0)
(-0.0127483 -0.00723864 0)
(0.00351435 -0.0221549 0)
(-0.00850142 -0.0266478 0)
(0.00675854 -0.0618986 0)
(-0.000723378 0.0426772 0)
(0.00163921 0.0249948 0)
(0.000935296 0.00992983 0)
(-0.00171725 0.00807202 0)
(-0.00456982 0.010519 0)
(-0.00564543 0.00865416 0)
(-0.00880021 0.00592569 0)
(-0.0103701 0.00255838 0)
(-0.00902669 -0.00291633 0)
(-0.00458572 -0.0123428 0)
(-0.00246252 -0.00793427 0)
(-0.00429396 0.00447755 0)
(-0.00608735 -0.00169717 0)
(-0.00291194 -0.00248545 0)
(-0.00806473 -0.00101545 0)
(-0.00503687 -0.000829046 0)
(-0.0081701 -0.000394404 0)
(-0.00257275 -0.00578746 0)
(-0.00694516 -0.00478364 0)
(0.00553515 -0.060269 0)
(0.00061598 0.0464489 0)
(-0.0007447 0.0262646 0)
(-0.000713021 0.0106065 0)
(-0.00368755 0.0132199 0)
(-0.00702382 0.00862348 0)
(-0.00619148 0.00967961 0)
(-0.00993071 0.00962936 0)
(-0.0141271 0.00378619 0)
(-0.0129896 -0.00710647 0)
(-0.0127213 -0.0127438 0)
(-0.00985825 -0.00321078 0)
(-0.00889814 0.0102808 0)
(-0.00798451 -0.00161504 0)
(-0.00648586 0.0029632 0)
(-0.00664026 0.00201649 0)
(-0.00557516 -0.00314543 0)
(-0.00328778 -0.007965 0)
(0.000233229 -0.0241454 0)
(-0.00868398 -0.033641 0)
(0.00592077 -0.0645983 0)
(-0.00210306 0.0432739 0)
(0.000574992 0.0224214 0)
(-0.0018449 0.0126726 0)
(-0.00337932 0.0125778 0)
(0.00161527 0.013339 0)
(-0.006084 0.0114446 0)
(-0.0093433 0.014163 0)
(-0.0146998 0.00708039 0)
(-0.0154926 -0.00544531 0)
(-0.0169222 -0.0162874 0)
(-0.0153867 -0.0126648 0)
(-0.00293828 0.00408083 0)
(0.00119847 -0.00549047 0)
(0.00290315 -0.00545227 0)
(-0.00225898 -0.00120534 0)
(0.00325714 -0.00681635 0)
(-0.00324531 -0.00684644 0)
(0.00893419 -0.00226543 0)
(-0.004604 -0.0104896 0)
(0.00448258 -0.060288 0)
(0.00206614 0.0456119 0)
(-0.0016586 0.0293011 0)
(-0.00030328 0.0145494 0)
(0.00387752 0.0117732 0)
(0.000994103 0.0124882 0)
(-0.00440252 0.0190358 0)
(-0.0115272 0.0180592 0)
(-0.011366 0.00845975 0)
(-0.0159572 -0.00356039 0)
(-0.0129154 -0.0147137 0)
(-0.0183275 -0.0169045 0)
(-0.00418306 -0.00640918 0)
(0.00220021 -0.0048415 0)
(0.00376654 0.00653024 0)
(0.00374481 0.00290989 0)
(0.00950175 -0.000358686 0)
(-0.00344595 -0.0110873 0)
(0.00855984 -0.0201305 0)
(-0.00274224 -0.0264359 0)
(0.00566775 -0.0639129 0)
(-0.00199239 0.0455986 0)
(0.0018306 0.0232675 0)
(0.00191475 0.0070365 0)
(0.000111526 0.00974803 0)
(-0.00180916 0.0199267 0)
(-0.000687409 0.0218646 0)
(-0.00439278 0.0202083 0)
(-0.00335875 0.00952803 0)
(-0.00688567 -0.00139541 0)
(-0.000534261 -0.0147619 0)
(-0.00476426 -0.0216273 0)
(-0.00173815 -0.0206749 0)
(0.00391341 -0.0163032 0)
(0.00919366 -0.00874369 0)
(0.00344297 -0.00701832 0)
(0.0116395 -0.00198189 0)
(-0.00490749 -0.00596989 0)
(-0.000355898 -0.00561609 0)
(-0.00465343 -0.0108882 0)
(0.00380462 -0.060708 0)
(0.00162453 0.0444555 0)
(-5.09956e-05 0.0269551 0)
(0.00414037 0.0162326 0)
(0.000173239 0.0174205 0)
(0.00477391 0.0161452 0)
(0.00547694 0.0213913 0)
(0.00443171 0.0242009 0)
(0.00873196 0.0126064 0)
(0.00505828 -0.00323788 0)
(0.00882636 -0.0156389 0)
(0.00281487 -0.0131203 0)
(-0.000217461 -0.0140009 0)
(0.00313954 -0.0090937 0)
(-0.00909316 0.00606851 0)
(-0.00186596 0.00362443 0)
(-0.0117933 0.008519 0)
(-0.00634683 2.06692e-05 0)
(-0.00373448 -0.0179422 0)
(-0.00361651 -0.0274619 0)
(0.00491939 -0.0642 0)
(0.00050804 0.0433134 0)
(0.00310654 0.0207952 0)
(0.00103631 0.00661651 0)
(0.00673663 0.00659309 0)
(0.00811947 0.0138268 0)
(0.00908206 0.0211009 0)
(0.011395 0.0175948 0)
(0.0202993 0.00622629 0)
(0.0177826 -0.00119765 0)
(0.0220903 -0.0134916 0)
(0.0174769 -0.0126183 0)
(0.0190933 -0.0225512 0)
(0.0175104 -0.0105899 0)
(0.0135678 -0.00227827 0)
(0.0106649 -0.00789524 0)
(0.00692412 0.00298584 0)
(0.0111696 -0.0165683 0)
(0.00619915 -0.0143151 0)
(-0.00597999 -0.0248018 0)
(0.00394892 -0.060737 0)
(0.00249454 0.041932 0)
(0.00439982 0.0253452 0)
(0.00736081 0.0135563 0)
(0.00684575 0.012482 0)
(0.00478113 0.0150944 0)
(0.0200593 0.0165485 0)
(0.0146737 0.014206 0)
(0.0310485 0.0071643 0)
(0.02458 -0.00203864 0)
(0.0366859 -0.0122665 0)
(0.0252164 -0.0157451 0)
(0.0336604 -0.0125824 0)
(0.00266896 -0.0102829 0)
(0.0275747 0.0148199 0)
(0.00338124 0.0115665 0)
(0.0133834 0.00737391 0)
(0.00739915 0.00942706 0)
(0.00912898 0.00228275 0)
(0.000114926 -0.0146702 0)
(0.00817805 -0.0613399 0)
(0.000498016 0.0358241 0)
(0.00333521 0.017732 0)
(0.00667089 0.00514862 0)
(0.0082618 0.00820497 0)
(0.0104098 -0.000339932 0)
(0.0189782 0.00973643 0)
(0.0221362 0.00639283 0)
(0.0265686 -0.00250425 0)
(0.0326569 -0.00626146 0)
(0.0313629 -0.0139973 0)
(0.0279829 -0.00252767 0)
(0.0129816 0.00026131 0)
(-0.0124608 -0.00515541 0)
(-0.0124469 0.00143147 0)
(-0.00136058 0.00146598 0)
(-0.000843043 -0.00254191 0)
(-0.00418635 -0.0149922 0)
(0.0216033 -0.011988 0)
(-0.00606829 -0.0354164 0)
(0.00457207 -0.0601621 0)
(0.00506462 0.035136 0)
(0.00839844 0.0189706 0)
(0.00692076 0.00728619 0)
(0.0122509 0.00852237 0)
(0.0104987 0.0049997 0)
(0.0125335 0.00301296 0)
(0.02285 0.00371665 0)
(0.0236806 -0.0027431 0)
(0.0342755 -0.0106636 0)
(0.0232794 -0.0112686 0)
(0.0306097 0.00478987 0)
(0.0238609 0.0171271 0)
(0.0275557 0.020208 0)
(0.0137383 0.00764007 0)
(0.0121116 -0.00249171 0)
(0.0182521 0.0118333 0)
(0.0121611 -0.00655017 0)
(0.0149719 0.00412329 0)
(-0.000610295 0.0165162 0)
(0.0167743 -0.0523033 0)
(-0.000534263 0.0257082 0)
(0.016316 0.0145387 0)
(0.012814 0.00459843 0)
(0.0127458 0.00265469 0)
(0.0145787 0.000900388 0)
(0.00947239 -0.00232672 0)
(0.0066983 -0.00487646 0)
(0.00460497 -0.00886221 0)
(-0.0120874 -0.00883945 0)
(-0.0243532 -0.00778257 0)
(-0.0274535 -0.00134228 0)
(-0.0147668 0.00372212 0)
(-0.0143733 0.00634823 0)
(0.00912239 0.0114225 0)
(-0.00455064 -0.00262388 0)
(0.00174638 0.00143648 0)
(0.00870368 -0.0142517 0)
(-0.0175198 -0.0084675 0)
(0.017405 -0.0409754 0)
(0.0137022 -0.0653799 0)
(0.00884062 0.0181319 0)
(0.0298303 0.0121101 0)
(0.0357215 0.00932643 0)
(0.0444645 0.00852585 0)
(0.0448737 0.00742492 0)
(0.0550189 0.00849185 0)
(0.0514395 0.00930513 0)
(0.0603428 0.0109272 0)
(0.0548745 0.0145721 0)
(0.0618882 0.00863482 0)
(0.0605477 0.00546273 0)
(0.0637255 -0.00418617 0)
(0.0622564 0.00210081 0)
(0.0641685 -0.0058654 0)
(0.0679628 0.00529772 0)
(0.0717508 -0.00184867 0)
(0.0689014 0.00934507 0)
(0.0648748 0.00282986 0)
(0.0544702 -0.000968773 0)
(0.0332317 0.00169081 0)
)
;

boundaryField
{
    movingWall
    {
        type            fixedValue;
        value           uniform (1 0 0);
    }
    fixedWalls
    {
        type            noSlip;
    }
    frontAndBack
    {
        type            empty;
    }
}


// ************************************************************************* //
