/*--------------------------------*- C++ -*----------------------------------*\
| =========                 |                                                 |
| \\      /  F ield         | OpenFOAM: The Open Source CFD Toolbox           |
|  \\    /   O peration     | Version:  5.x                                   |
|   \\  /    A nd           | Web:      www.OpenFOAM.org                      |
|    \\/     M anipulation  |                                                 |
\*---------------------------------------------------------------------------*/
FoamFile
{
    version     2.0;
    format      ascii;
    class       volScalarField;
    location    "10";
    object      p;
}
// * * * * * * * * * * * * * * * * * * * * * * * * * * * * * * * * * * * * * //

dimensions      [0 2 -2 0 0 0 0];

internalField   nonuniform List<scalar> 
400
(
-4.53088e-11
-0.000406664
-0.000733468
-0.000923185
-0.00104135
-0.00111928
-0.00116734
-0.00118061
-0.00117966
-0.00120451
-0.0011977
-0.00115662
-0.00118418
-0.00117202
-0.00113183
-0.00110612
-0.000992188
-0.000742687
-0.000583572
0.000337851
-0.000503712
-0.000737961
-0.00091629
-0.00100993
-0.0010877
-0.00115474
-0.00117146
-0.00117702
-0.0011849
-0.00121007
-0.00120751
-0.00116559
-0.00119464
-0.00117867
-0.00114434
-0.00113102
-0.00113286
-0.00107714
-0.00101513
-0.000394787
-0.000673709
-0.000823658
-0.000943028
-0.00103304
-0.00109589
-0.00114287
-0.00116728
-0.00118141
-0.00119403
-0.00118726
-0.001201
-0.00116827
-0.00118979
-0.0011722
-0.00116902
-0.00115713
-0.00115504
-0.00111307
-0.00107925
-0.000797277
-0.000831549
-0.000919519
-0.00100292
-0.00107814
-0.00112929
-0.00116964
-0.00119094
-0.00119274
-0.0012009
-0.00119205
-0.00119807
-0.0011765
-0.00118049
-0.00116414
-0.00116139
-0.00113884
-0.001153
-0.00113339
-0.00117669
-0.00104107
-0.000976877
-0.00103485
-0.00109547
-0.00115316
-0.00118601
-0.0012046
-0.00121335
-0.00120674
-0.00121032
-0.0011951
-0.00120005
-0.00117875
-0.00118858
-0.00116887
-0.00118294
-0.0011663
-0.00118873
-0.00116994
-0.00117704
-0.00109747
-0.00112922
-0.00117652
-0.00123938
-0.00128658
-0.0012919
-0.00127869
-0.0012659
-0.00124037
-0.00122924
-0.00120645
-0.00120103
-0.0011809
-0.00117911
-0.00116124
-0.00116402
-0.00114345
-0.00116049
-0.00112576
-0.00115691
-0.00112898
-0.00129919
-0.00136743
-0.00146472
-0.00149244
-0.00144609
-0.00137322
-0.00132285
-0.00127478
-0.00124784
-0.00121809
-0.00120871
-0.00118683
-0.00118981
-0.00116751
-0.00118311
-0.00115878
-0.00118275
-0.00115727
-0.00119161
-0.00113582
-0.00150363
-0.00158641
-0.00171101
-0.0017281
-0.00163739
-0.0014922
-0.00138687
-0.00130757
-0.00126235
-0.00122014
-0.00120512
-0.00117877
-0.00117739
-0.00115506
-0.00116576
-0.00113693
-0.00115889
-0.00112025
-0.001149
-0.00112987
-0.00160178
-0.00173895
-0.00188664
-0.00195592
-0.00182508
-0.00159484
-0.00143596
-0.00133298
-0.00127795
-0.00122503
-0.00121383
-0.00118121
-0.00118631
-0.00115856
-0.00117548
-0.00114373
-0.00117512
-0.00113916
-0.0011892
-0.00113146
-0.00156797
-0.00174115
-0.00197079
-0.00206055
-0.00191441
-0.00162741
-0.00144218
-0.00132311
-0.00126334
-0.00120446
-0.0011947
-0.00116065
-0.00116865
-0.00113752
-0.00116059
-0.00112863
-0.00115766
-0.00111011
-0.00114591
-0.00112069
-0.00138874
-0.00162664
-0.0019062
-0.00200847
-0.0018832
-0.00160398
-0.00141501
-0.00130423
-0.00124234
-0.00119995
-0.001186
-0.00116401
-0.00117015
-0.00114433
-0.00115845
-0.00112576
-0.00116858
-0.00111718
-0.00118036
-0.00112236
-0.000981992
-0.00132822
-0.00164516
-0.00180784
-0.00173379
-0.00149722
-0.00133271
-0.00125817
-0.00122317
-0.00118271
-0.0011604
-0.00113794
-0.00113821
-0.00111627
-0.00113745
-0.0011152
-0.00115685
-0.00110262
-0.00114606
-0.00108543
-0.000657265
-0.00106507
-0.00130325
-0.00143389
-0.00144504
-0.00128482
-0.00116113
-0.00116997
-0.00116698
-0.00116122
-0.00113399
-0.00114475
-0.00114968
-0.00113124
-0.00115256
-0.00109835
-0.00114445
-0.00110467
-0.00114386
-0.00108003
-0.000729447
-0.00107313
-0.0010652
-0.00109092
-0.00113968
-0.00112371
-0.00110433
-0.00110352
-0.00110144
-0.00110302
-0.00110557
-0.00111681
-0.00110948
-0.00109223
-0.00107559
-0.00111383
-0.00114027
-0.00104034
-0.00112928
-0.00109688
-0.000906466
-0.00108847
-0.000996106
-0.000996843
-0.00104759
-0.0010554
-0.00105378
-0.00104862
-0.00108068
-0.00108741
-0.00110683
-0.00114605
-0.0010947
-0.00117921
-0.00111949
-0.00115805
-0.00119593
-0.00114019
-0.00124316
-0.00113914
-0.00111128
-0.00109593
-0.00102565
-0.00100503
-0.00102971
-0.00103148
-0.00107196
-0.00106018
-0.00107716
-0.00106927
-0.00107863
-0.00107761
-0.00107514
-0.00110136
-0.00107928
-0.00107666
-0.00109628
-0.00113258
-0.00114466
-0.00108898
-0.000983686
-0.00108788
-0.00104296
-0.000981921
-0.00100068
-0.00100761
-0.00102372
-0.00101995
-0.00106914
-0.00105461
-0.00110353
-0.00109572
-0.00109068
-0.00114146
-0.00107379
-0.00118418
-0.00127403
-0.00110793
-0.00122542
-0.000976511
-0.000936503
-0.00107301
-0.00101422
-0.000997749
-0.000996015
-0.00101068
-0.00102569
-0.00104005
-0.00105578
-0.00106269
-0.00108042
-0.00104914
-0.00108441
-0.00108307
-0.0010933
-0.00121822
-0.00114985
-0.000931193
-0.000967461
-0.000768826
-0.00089361
-0.00100683
-0.00102143
-0.00101451
-0.00097816
-0.000989159
-0.00102024
-0.00102152
-0.00104682
-0.00105893
-0.00109445
-0.00106673
-0.00113066
-0.00107802
-0.00113613
-0.00115415
-0.00107456
-0.00125347
-0.000969525
-0.000540719
-0.00103829
-0.000992278
-0.000944124
-0.000992134
-0.000972039
-0.00100263
-0.00100792
-0.00102509
-0.00104538
-0.00105508
-0.00105445
-0.0010565
-0.00105483
-0.00103689
-0.00108799
-0.00110545
-0.00107055
-0.000849269
-0.000367188
0.00094622
)
;

boundaryField
{
    movingWall
    {
        type            zeroGradient;
    }
    fixedWalls
    {
        type            zeroGradient;
    }
    frontAndBack
    {
        type            empty;
    }
}


// ************************************************************************* //
