/*--------------------------------*- C++ -*----------------------------------*\
| =========                 |                                                 |
| \\      /  F ield         | OpenFOAM: The Open Source CFD Toolbox           |
|  \\    /   O peration     | Version:  5.x                                   |
|   \\  /    A nd           | Web:      www.OpenFOAM.org                      |
|    \\/     M anipulation  |                                                 |
\*---------------------------------------------------------------------------*/
FoamFile
{
    version     2.0;
    format      ascii;
    class       surfaceScalarField;
    location    "10";
    object      phi;
}
// * * * * * * * * * * * * * * * * * * * * * * * * * * * * * * * * * * * * * //

dimensions      [0 3 -1 0 0 0 0];

internalField   nonuniform List<scalar> 
760
(
-9.86675e-07
9.86675e-07
-1.66199e-06
6.75316e-07
-1.97716e-06
3.15167e-07
-2.13821e-06
1.61053e-07
-2.27254e-06
1.34326e-07
-2.32759e-06
5.50545e-08
-2.34154e-06
1.39474e-08
-2.34787e-06
6.33492e-09
-2.38277e-06
3.49012e-08
-2.40049e-06
1.77149e-08
-2.36345e-06
-3.70408e-08
-2.3587e-06
-4.75287e-09
-2.42229e-06
6.35975e-08
-2.33292e-06
-8.93684e-08
-2.3449e-06
1.19806e-08
-2.29003e-06
-5.48761e-08
-2.17954e-06
-1.10488e-07
-1.88611e-06
-2.9343e-07
-1.22416e-06
-6.61954e-07
-1.22416e-06
-4.13577e-07
1.40025e-06
-6.56698e-07
9.18437e-07
-8.10052e-07
4.6852e-07
-8.95795e-07
2.46796e-07
-8.96612e-07
1.35143e-07
-9.38245e-07
9.66877e-08
-9.78592e-07
5.42944e-08
-1.00732e-06
3.50596e-08
-9.9516e-07
2.27445e-08
-9.86036e-07
8.59106e-09
-1.02051e-06
-2.5623e-09
-9.9169e-07
-3.35776e-08
-9.53418e-07
2.53254e-08
-9.64072e-07
-7.87145e-08
-9.53472e-07
1.38126e-09
-9.32242e-07
-7.6106e-08
-1.01101e-06
-3.17178e-08
-1.03557e-06
-2.68873e-07
-9.22417e-07
-7.75107e-07
-2.14657e-06
-2.59493e-07
1.65975e-06
-3.99529e-07
1.05847e-06
-4.73935e-07
5.42926e-07
-4.8766e-07
2.6052e-07
-4.5705e-07
1.04533e-07
-4.3501e-07
7.46485e-08
-3.79664e-07
-1.05258e-09
-3.26401e-07
-1.82027e-08
-2.82009e-07
-2.16483e-08
-2.49472e-07
-2.39451e-08
-2.15387e-07
-3.66475e-08
-2.0081e-07
-4.81544e-08
-1.58619e-07
-1.68659e-08
-1.63517e-07
-7.38166e-08
-1.39594e-07
-2.25413e-08
-1.319e-07
-8.38005e-08
-1.53077e-07
-1.05401e-08
-1.21527e-07
-3.00423e-07
-2.06717e-07
-6.89917e-07
-2.35329e-06
-1.83043e-07
1.84279e-06
-3.31814e-07
1.20724e-06
-4.63689e-07
6.74801e-07
-4.7745e-07
2.74281e-07
-4.34989e-07
6.2071e-08
-3.85709e-07
2.53687e-08
-3.17515e-07
-6.9246e-08
-2.60035e-07
-7.56829e-08
-2.04753e-07
-7.69306e-08
-1.53034e-07
-7.56639e-08
-1.31836e-07
-5.78455e-08
-1.09038e-07
-7.09527e-08
-1.1338e-07
-1.2524e-08
-1.20698e-07
-6.64985e-08
-1.74177e-07
3.09375e-08
-1.78502e-07
-7.94754e-08
-1.87059e-07
-1.98241e-09
-2.30599e-07
-2.56884e-07
-1.98186e-07
-7.2233e-07
-2.55148e-06
-2.47866e-07
2.09066e-06
-4.54952e-07
1.41433e-06
-6.12541e-07
8.3239e-07
-6.26505e-07
2.88245e-07
-5.45702e-07
-1.87321e-08
-4.3491e-07
-8.5423e-08
-3.55338e-07
-1.48818e-07
-2.84569e-07
-1.46451e-07
-2.22292e-07
-1.39208e-07
-1.65906e-07
-1.3205e-07
-1.18783e-07
-1.04969e-07
-7.61297e-08
-1.13606e-07
-3.18535e-08
-5.68002e-08
1.01179e-08
-1.0847e-07
5.12642e-08
-1.02089e-08
1.08694e-07
-1.36906e-07
1.0111e-07
5.60229e-09
5.56758e-08
-2.1145e-07
2.01165e-09
-6.68666e-07
-2.54946e-06
-2.22268e-07
2.31292e-06
-5.09577e-07
1.70164e-06
-6.86206e-07
1.00902e-06
-7.13032e-07
3.15071e-07
-5.97183e-07
-1.34581e-07
-4.40986e-07
-2.41619e-07
-3.24223e-07
-2.65582e-07
-2.31037e-07
-2.39637e-07
-1.64041e-07
-2.06204e-07
-1.12456e-07
-1.83636e-07
-8.68348e-08
-1.3059e-07
-6.42358e-08
-1.36205e-07
-5.61322e-08
-6.49037e-08
-5.33197e-08
-1.11282e-07
-4.34994e-08
-2.00292e-08
-6.61683e-08
-1.14237e-07
-3.94522e-08
-2.11138e-08
-2.38868e-08
-2.27015e-07
-2.19181e-08
-6.70635e-07
-2.57138e-06
-2.68319e-07
2.58124e-06
-5.38655e-07
1.97197e-06
-7.34042e-07
1.20441e-06
-7.67766e-07
3.48795e-07
-6.40968e-07
-2.61379e-07
-4.59761e-07
-4.22826e-07
-3.25868e-07
-3.99475e-07
-2.25961e-07
-3.39543e-07
-1.48062e-07
-2.84103e-07
-9.44228e-08
-2.37275e-07
-4.43654e-08
-1.80647e-07
-1.54666e-08
-1.65104e-07
1.87094e-08
-9.90797e-08
4.08731e-08
-1.33446e-07
5.45667e-08
-3.37227e-08
7.41388e-08
-1.33809e-07
5.80608e-08
-5.03578e-09
1.50735e-08
-1.84028e-07
-1.75952e-08
-6.37966e-07
-2.58898e-06
-1.88005e-07
2.76925e-06
-3.57541e-07
2.14151e-06
-5.66418e-07
1.41328e-06
-6.34404e-07
4.16782e-07
-5.64627e-07
-3.31156e-07
-3.93564e-07
-5.93889e-07
-2.51831e-07
-5.41209e-07
-1.64398e-07
-4.26977e-07
-1.06553e-07
-3.41948e-07
-7.04018e-08
-2.73425e-07
-4.15365e-08
-2.09512e-07
-3.37895e-08
-1.72851e-07
-1.34545e-08
-1.19415e-07
-1.88077e-08
-1.28093e-07
3.22918e-09
-5.57596e-08
-1.57619e-08
-1.14818e-07
-3.74044e-09
-1.70572e-08
1.21745e-08
-1.99943e-07
2.34975e-08
-6.49289e-07
-2.56548e-06
-5.8779e-08
2.82803e-06
-1.21632e-07
2.20436e-06
-2.72392e-07
1.56404e-06
-3.78153e-07
5.22542e-07
-3.50679e-07
-3.5863e-07
-2.17801e-07
-7.26767e-07
-9.58308e-08
-6.63179e-07
-2.59761e-08
-4.96831e-07
2.10971e-08
-3.89022e-07
3.88069e-08
-2.91135e-07
5.62766e-08
-2.26982e-07
5.83722e-08
-1.74946e-07
6.82312e-08
-1.29274e-07
5.98381e-08
-1.197e-07
6.12368e-08
-5.71584e-08
6.18958e-08
-1.15477e-07
4.65516e-08
-1.71299e-09
-8.23211e-10
-1.52568e-07
-4.2746e-08
-6.07366e-07
-2.60823e-06
2.25705e-07
2.60232e-06
1.79342e-07
2.25073e-06
1.52584e-07
1.5908e-06
9.0475e-08
5.84651e-07
7.95191e-08
-3.47674e-07
7.38791e-08
-7.21127e-07
6.5887e-08
-6.55187e-07
3.51322e-08
-4.66077e-07
3.4819e-08
-3.88708e-07
3.41046e-08
-2.90421e-07
4.03937e-08
-2.33271e-07
2.0043e-08
-1.54596e-07
3.48229e-08
-1.44054e-07
1.1702e-08
-9.6579e-08
5.17293e-08
-9.71856e-08
7.24625e-08
-1.3621e-07
3.93336e-08
3.14159e-08
3.55675e-08
-1.48802e-07
3.32851e-08
-6.05084e-07
-2.57494e-06
2.78675e-07
2.32365e-06
5.06034e-07
2.02337e-06
5.98509e-07
1.49833e-06
5.49367e-07
6.33793e-07
4.29126e-07
-2.27433e-07
4.36022e-07
-7.28024e-07
5.22554e-07
-7.41719e-07
4.96871e-07
-4.40393e-07
3.58254e-07
-2.50091e-07
2.21515e-07
-1.53682e-07
1.64373e-07
-1.76129e-07
1.3021e-07
-1.20432e-07
1.10842e-07
-1.24685e-07
9.30393e-08
-7.87768e-08
6.49096e-08
-6.90559e-08
3.24398e-09
-7.45442e-08
2.30137e-08
1.16462e-08
-4.9484e-09
-1.2084e-07
-5.97618e-08
-5.5027e-07
-2.6347e-06
7.37466e-07
1.58618e-06
1.08862e-06
1.67222e-06
1.16603e-06
1.42092e-06
1.07681e-06
7.23005e-07
8.16273e-07
3.31074e-08
5.5563e-07
-4.6738e-07
4.4327e-07
-6.29359e-07
4.40835e-07
-4.37958e-07
3.73895e-07
-1.83151e-07
2.84491e-07
-6.4279e-08
1.83244e-07
-7.4882e-08
1.11626e-07
-4.88148e-08
4.19223e-08
-5.49809e-08
-6.16848e-08
2.48303e-08
3.6718e-08
-1.67459e-07
-2.3206e-08
-1.46203e-08
1.69069e-08
-2.84668e-08
9.14204e-08
-1.95353e-07
2.59497e-08
-4.848e-07
-2.60875e-06
1.07811e-06
5.08066e-07
1.48654e-06
1.26379e-06
1.62416e-06
1.2833e-06
1.65612e-06
6.91045e-07
1.52189e-06
1.67345e-07
1.02493e-06
2.95803e-08
4.26377e-07
-3.08105e-08
9.58118e-08
-1.07392e-07
4.95258e-08
-1.36865e-07
3.38725e-08
-4.86257e-08
1.11752e-07
-1.52762e-07
4.6227e-09
5.83148e-08
1.03507e-07
-1.53865e-07
7.68064e-08
5.15305e-08
5.80502e-08
-1.48703e-07
3.82735e-08
5.15639e-09
6.473e-08
-5.49233e-08
9.89846e-08
-2.29608e-07
-2.14361e-08
-3.64379e-07
-2.63019e-06
6.80832e-07
-1.72766e-07
1.06294e-06
8.81681e-07
1.32105e-06
1.02519e-06
1.44443e-06
5.67658e-07
1.40734e-06
2.04439e-07
1.27871e-06
1.58216e-07
1.14234e-06
1.05551e-07
9.69382e-07
6.55696e-08
8.6015e-07
-2.76324e-08
7.43262e-07
6.82617e-08
6.69084e-07
-7.85832e-08
6.00481e-07
1.26917e-07
4.34406e-07
1.22101e-08
3.21319e-07
1.64618e-07
-8.51228e-08
2.57739e-07
-3.97275e-07
3.17308e-07
-2.06952e-07
-2.45246e-07
-1.12353e-07
-3.24206e-07
1.7123e-08
-4.93855e-07
-2.61307e-06
3.52194e-07
-5.2496e-07
7.81187e-07
4.52688e-07
9.58499e-07
8.47876e-07
9.02171e-07
6.23986e-07
6.73403e-07
4.33207e-07
5.24769e-07
3.0685e-07
3.59741e-07
2.70579e-07
2.81193e-07
1.44118e-07
8.29003e-08
1.7066e-07
2.66161e-08
1.24546e-07
-1.40822e-07
8.88552e-08
-1.53168e-07
1.39263e-07
-1.6957e-07
2.86129e-08
-2.36837e-07
2.31885e-07
2.84509e-08
-7.54914e-09
1.50063e-07
1.95696e-07
8.68302e-08
-1.82013e-07
-2.26342e-07
-1.10345e-08
-8.0209e-08
-6.39988e-07
-2.69328e-06
1.34135e-07
-6.59095e-07
3.72947e-07
2.13876e-07
5.78651e-07
6.42171e-07
7.38525e-07
4.64112e-07
6.9667e-07
4.75061e-07
7.44639e-07
2.58881e-07
6.81425e-07
3.33793e-07
6.36663e-07
1.8888e-07
5.6252e-07
2.44803e-07
5.05183e-07
1.81884e-07
4.68301e-07
1.25737e-07
3.35959e-07
2.71605e-07
3.81304e-07
-1.67318e-08
3.18509e-07
2.94679e-07
2.51454e-07
5.95058e-08
4.26906e-07
2.02445e-08
4.08479e-07
-1.63586e-07
8.04117e-08
3.17033e-07
8.1678e-08
-6.41254e-07
-2.6116e-06
-2.00293e-07
-4.58802e-07
-4.51122e-07
4.64705e-07
-2.04688e-07
3.95737e-07
-9.61911e-08
3.55615e-07
-5.08929e-08
4.29763e-07
-3.9636e-08
2.47624e-07
3.13024e-08
2.62854e-07
-1.80927e-08
2.38275e-07
5.30326e-08
1.73677e-07
3.51712e-08
1.99745e-07
2.41237e-08
1.36784e-07
1.3556e-07
1.60168e-07
-1.64926e-08
1.35321e-07
5.46857e-08
2.23501e-07
-2.8846e-08
1.43038e-07
-3.24768e-07
3.16166e-07
9.18528e-08
-5.80207e-07
2.91693e-07
1.17192e-07
5.01667e-08
-3.99728e-07
-2.56143e-06
-9.74439e-08
-3.61358e-07
2.03592e-07
1.63669e-07
3.12593e-07
2.86736e-07
3.58826e-07
3.09382e-07
4.87181e-07
3.01408e-07
5.2632e-07
2.08486e-07
5.82291e-07
2.06884e-07
6.28621e-07
1.91945e-07
6.44281e-07
1.58017e-07
6.86531e-07
1.57494e-07
6.50499e-07
1.72816e-07
6.46875e-07
1.63792e-07
6.81618e-07
1.00579e-07
5.53961e-07
3.51158e-07
7.49977e-07
-5.2979e-08
6.73427e-07
3.92717e-07
4.06255e-07
-3.13034e-07
2.92425e-07
2.31022e-07
2.64488e-07
-3.71791e-07
-2.29694e-06
-7.37558e-07
3.762e-07
-8.29249e-07
2.5536e-07
-8.11518e-07
2.69005e-07
-7.00645e-07
1.9851e-07
-5.86464e-07
1.87227e-07
-5.47573e-07
1.69595e-07
-5.11119e-07
1.7043e-07
-4.52016e-07
1.32841e-07
-4.25646e-07
1.31648e-07
-3.91685e-07
1.23533e-07
-3.23562e-07
1.04693e-07
-2.69145e-07
1.09375e-07
-2.24374e-07
5.5808e-08
-5.28433e-08
1.79627e-07
-1.78882e-07
7.30593e-08
8.58943e-08
1.27941e-07
-2.18572e-07
-8.56797e-09
8.52116e-08
-7.27618e-08
7.28674e-07
-1.01525e-06
-1.56827e-06
3.762e-07
6.3156e-07
9.00565e-07
1.09907e-06
1.2863e-06
1.4559e-06
1.62633e-06
1.75917e-06
1.89082e-06
2.01435e-06
2.11904e-06
2.22842e-06
2.28422e-06
2.46385e-06
2.53691e-06
2.66485e-06
2.65628e-06
2.58352e-06
1.56827e-06
)
;

boundaryField
{
    movingWall
    {
        type            calculated;
        value           uniform 0;
    }
    fixedWalls
    {
        type            calculated;
        value           uniform 0;
    }
    frontAndBack
    {
        type            empty;
        value           nonuniform 0();
    }
}


// ************************************************************************* //
