/*--------------------------------*- C++ -*----------------------------------*\
| =========                 |                                                 |
| \\      /  F ield         | OpenFOAM: The Open Source CFD Toolbox           |
|  \\    /   O peration     | Version:  5.x                                   |
|   \\  /    A nd           | Web:      www.OpenFOAM.org                      |
|    \\/     M anipulation  |                                                 |
\*---------------------------------------------------------------------------*/
FoamFile
{
    version     2.0;
    format      ascii;
    class       volVectorField;
    location    "10";
    object      U;
}
// * * * * * * * * * * * * * * * * * * * * * * * * * * * * * * * * * * * * * //

dimensions      [0 1 -1 0 0 0 0];

internalField   nonuniform List<vector> 
400
(
(-0.0125416 0.0059677 0)
(-0.0299404 0.00302036 0)
(-0.0381115 -0.000959603 0)
(-0.0399683 -0.00123956 0)
(-0.0442141 0.000424698 0)
(-0.0457263 -0.00199466 0)
(-0.0468094 -0.00238944 0)
(-0.0471724 -0.00208233 0)
(-0.0460239 -0.000289389 0)
(-0.0488995 -0.000982514 0)
(-0.0483532 -0.00308627 0)
(-0.0449099 -0.00118611 0)
(-0.0493919 2.57888e-05 0)
(-0.0484029 -0.00373455 0)
(-0.04504 -0.00124304 0)
(-0.0491738 -0.00129068 0)
(-0.0444012 -0.0030927 0)
(-0.0396594 -0.00384923 0)
(-0.0413936 -0.00906624 0)
(-0.00117325 -0.0152373 0)
(-0.00639487 0.0294986 0)
(-0.0116739 0.0212208 0)
(-0.0154378 0.0120919 0)
(-0.0164415 0.00699434 0)
(-0.0185378 0.00449388 0)
(-0.0179612 0.00388367 0)
(-0.0189766 0.00287504 0)
(-0.0203307 0.00236524 0)
(-0.0194654 0.00173899 0)
(-0.0201089 0.001581 0)
(-0.0203434 0.00146595 0)
(-0.0191037 0.000939007 0)
(-0.0211552 0.00233779 0)
(-0.0171648 -2.7602e-05 0)
(-0.0215737 0.00171753 0)
(-0.0156491 -0.00104768 0)
(-0.0230362 -0.00208404 0)
(-0.0165978 -0.00982212 0)
(-0.0281732 -0.0206477 0)
(-0.0040824 -0.0388204 0)
(-0.00418821 0.0294094 0)
(-0.00717022 0.017635 0)
(-0.00912893 0.00800906 0)
(-0.00992819 0.00355535 0)
(-0.00912458 0.00130134 0)
(-0.00925651 0.000387582 0)
(-0.00782339 -0.000490458 0)
(-0.00709984 -0.000910961 0)
(-0.00629988 -0.000898698 0)
(-0.00448914 -0.00113569 0)
(-0.00608145 -0.00153964 0)
(-0.00188125 -0.0021853 0)
(-0.00673499 -0.00130509 0)
(0.000754529 -0.00296697 0)
(-0.00756083 -0.00169063 0)
(0.00224484 -0.00226855 0)
(-0.00789241 0.0010628 0)
(0.00212605 0.000299075 0)
(-0.00777197 -0.00787816 0)
(0.000981678 -0.0443472 0)
(-0.00313455 0.0364876 0)
(-0.00479425 0.024696 0)
(-0.00876834 0.0134282 0)
(-0.0101323 0.00670292 0)
(-0.00850632 0.00281825 0)
(-0.00886657 0.00239091 0)
(-0.00668186 0.000420084 0)
(-0.00561257 0.000128205 0)
(-0.00514215 7.8194e-05 0)
(-0.00266977 6.60756e-05 0)
(-0.00382071 4.80606e-05 0)
(-0.00108545 0.000149315 0)
(-0.00357675 0.000714339 0)
(-0.000695896 0.000147414 0)
(-0.00442056 0.000959773 0)
(-0.00208904 -0.000692179 0)
(-0.00556065 -0.00136814 0)
(-0.00131813 -0.0118561 0)
(-0.00895985 -0.0210458 0)
(0.002145 -0.0504666 0)
(-0.00354686 0.0373794 0)
(-0.00691767 0.0235272 0)
(-0.0116897 0.0137611 0)
(-0.0131293 0.00465425 0)
(-0.0113942 -0.000173071 0)
(-0.0101074 -0.00126629 0)
(-0.00759305 -0.0029672 0)
(-0.00618986 -0.00298041 0)
(-0.00559862 -0.00303649 0)
(-0.00287731 -0.00297692 0)
(-0.00414999 -0.00244651 0)
(-0.000238222 -0.0029057 0)
(-0.00310551 -0.00130822 0)
(0.00202933 -0.00298897 0)
(-0.00174049 7.40475e-05 0)
(0.00406021 -0.00287509 0)
(-0.000133015 0.00122635 0)
(0.00454659 0.000871113 0)
(-0.00267201 -0.00682849 0)
(0.00283557 -0.0487926 0)
(-0.00120797 0.0455015 0)
(-0.00808099 0.0327519 0)
(-0.0129935 0.019415 0)
(-0.0147573 0.00682409 0)
(-0.0130793 -0.000642598 0)
(-0.0102603 -0.0023704 0)
(-0.00774863 -0.00329134 0)
(-0.00481707 -0.00313607 0)
(-0.0047666 -0.00271481 0)
(-0.00149486 -0.00245136 0)
(-0.00326726 -0.00163575 0)
(2.68635e-05 -0.0015509 0)
(-0.00280164 -0.000758421 0)
(0.000755803 -0.0011136 0)
(-0.00310334 -0.000355692 0)
(0.00159169 -0.00211364 0)
(-0.00458044 -0.000887774 0)
(0.00330475 -0.00851693 0)
(-0.00450318 -0.0189065 0)
(0.00381962 -0.0525514 0)
(-0.00221926 0.0459298 0)
(-0.0090094 0.0339282 0)
(-0.0135867 0.0196542 0)
(-0.0159152 0.00520867 0)
(-0.0138617 -0.00498809 0)
(-0.0109667 -0.00744167 0)
(-0.00786406 -0.00741552 0)
(-0.00486048 -0.00657438 0)
(-0.00450053 -0.00565824 0)
(-0.00117614 -0.0050924 0)
(-0.00284097 -0.00380251 0)
(0.00124113 -0.00411763 0)
(-0.00197986 -0.00207247 0)
(0.00288452 -0.0036058 0)
(-0.00150376 -0.000617766 0)
(0.00399827 -0.00286631 0)
(-0.0014146 -0.000156712 0)
(0.00409327 -0.00137021 0)
(-0.0037027 -0.00923989 0)
(0.00322469 -0.0498529 0)
(-0.00316534 0.0549607 0)
(-0.00478418 0.0432176 0)
(-0.0104834 0.0273032 0)
(-0.0123827 0.00827822 0)
(-0.0121371 -0.00597129 0)
(-0.00943789 -0.0100967 0)
(-0.00663626 -0.00898495 0)
(-0.00330223 -0.00702616 0)
(-0.00358666 -0.00554076 0)
(-0.000458628 -0.00413897 0)
(-0.00258237 -0.00313768 0)
(0.00108712 -0.00220236 0)
(-0.0026095 -0.0015978 0)
(0.00218729 -0.00142922 0)
(-0.00310159 -0.000526034 0)
(0.00330978 -0.00207166 0)
(-0.00412514 4.61428e-05 0)
(0.00406933 -0.00531262 0)
(-0.00375247 -0.0148575 0)
(0.0048716 -0.0526187 0)
(-0.00225243 0.0554225 0)
(-0.000436756 0.0413619 0)
(-0.00487209 0.0283703 0)
(-0.00676719 0.00746565 0)
(-0.00753673 -0.00807237 0)
(-0.0054524 -0.014313 0)
(-0.00350432 -0.0131123 0)
(-0.00039114 -0.0104993 0)
(-0.0007775 -0.00861183 0)
(0.00176642 -0.00719488 0)
(-0.000446433 -0.0056448 0)
(0.00296056 -0.00504864 0)
(-0.000916877 -0.00351248 0)
(0.00397358 -0.00401367 0)
(-0.00191658 -0.00194172 0)
(0.00473749 -0.00285794 0)
(-0.00266462 -0.000885453 0)
(0.00490433 -0.00333009 0)
(-0.00503412 -0.0125729 0)
(0.00369968 -0.0509908 0)
(0.0056496 0.0564771 0)
(0.00268662 0.0468864 0)
(0.00359571 0.0328093 0)
(0.00201237 0.0128983 0)
(0.0020862 -0.00639122 0)
(0.00177867 -0.0143097 0)
(0.000893433 -0.01301 0)
(0.00160904 -0.00890694 0)
(-0.000419343 -0.00649395 0)
(0.00200393 -0.00396618 0)
(-0.000871592 -0.00302484 0)
(0.00272335 -0.00155078 0)
(-0.0021072 -0.00132007 0)
(0.00375785 -0.000424592 0)
(-0.00345283 -0.000141931 0)
(0.00586951 -0.0014835 0)
(-0.0034178 0.000861097 0)
(0.00534781 -0.00226877 0)
(-0.0042474 -0.0103356 0)
(0.00581933 -0.0521999 0)
(0.00199146 0.0486386 0)
(0.00805734 0.0430292 0)
(0.0106663 0.0316342 0)
(0.0124557 0.0109773 0)
(0.0106026 -0.00708543 0)
(0.00803629 -0.0146789 0)
(0.00901504 -0.0131942 0)
(0.0113716 -0.00963561 0)
(0.00800455 -0.00884731 0)
(0.00651405 -0.00805017 0)
(0.00195702 -0.00665994 0)
(0.00496012 -0.00503226 0)
(-0.000145545 -0.00482424 0)
(0.00497874 -0.0037816 0)
(-0.0016607 -0.00398764 0)
(0.00465599 -0.00419526 0)
(-0.00463301 0.000214974 0)
(0.00586319 -0.0040929 0)
(-0.00621542 -0.0151702 0)
(0.0042871 -0.0523804 0)
(0.00660683 0.0483263 0)
(0.0204354 0.0411692 0)
(0.0215022 0.0302697 0)
(0.0239163 0.014762 0)
(0.0205837 -0.00217842 0)
(0.0139926 -0.0142144 0)
(0.0078984 -0.0167868 0)
(0.00914324 -0.00825179 0)
(0.00802262 -0.00154224 0)
(0.00735257 0.00210576 0)
(0.00368456 -0.0001273 0)
(0.0039373 0.00059912 0)
(0.000210607 0.000269005 0)
(0.00170334 0.000976323 0)
(-0.00449211 0.00149288 0)
(0.00624274 0.00120729 0)
(-0.00744161 0.000324216 0)
(0.00837394 -0.000445032 0)
(-0.00532205 -0.00582757 0)
(0.00665164 -0.0511963 0)
(0.010453 0.017351 0)
(0.0291795 0.0277065 0)
(0.0317624 0.0285364 0)
(0.0320347 0.0157737 0)
(0.0349866 0.00376932 0)
(0.0282241 -0.00327571 0)
(0.0132225 -0.00688239 0)
(0.00277383 -0.00889525 0)
(0.00124625 -0.00560924 0)
(0.000593825 -0.00487416 0)
(0.000962024 -0.00295065 0)
(0.00319918 -0.00280388 0)
(-0.00305459 -0.00278568 0)
(0.00755594 -0.000205745 0)
(-0.00490438 -0.00883416 0)
(0.00767902 -0.0016901 0)
(-0.00652767 -0.00139088 0)
(0.00958213 -0.00792795 0)
(-0.00622743 -0.0142175 0)
(0.00563628 -0.0528243 0)
(0.00279759 0.00132586 0)
(0.0214416 0.020234 0)
(0.0239318 0.024061 0)
(0.0276701 0.0134919 0)
(0.0290228 0.00378502 0)
(0.0286733 0.00450448 0)
(0.0220096 0.00540353 0)
(0.0236774 0.00471328 0)
(0.0152592 0.000504808 0)
(0.019265 0.00319179 0)
(0.0106424 -0.00286386 0)
(0.0155585 0.00546722 0)
(0.00877383 -0.0028883 0)
(0.00880359 0.00270019 0)
(0.00462603 0.00367131 0)
(-0.00837686 0.00186976 0)
(-0.00846452 -0.000573151 0)
(0.00132611 -0.000235572 0)
(-0.0066504 0.00066254 0)
(0.00756418 -0.0518604 0)
(-0.00467254 -0.00829231 0)
(0.0170095 0.0155856 0)
(0.0165914 0.0157084 0)
(0.0206868 0.00797368 0)
(0.0142957 0.00364387 0)
(0.0133457 0.0015697 0)
(0.00747224 -0.000794205 0)
(0.0073513 -0.00182726 0)
(0.00333444 -0.00172208 0)
(0.000224721 -0.00071323 0)
(0.000894068 -0.000570788 0)
(-0.00708175 -0.00101732 0)
(0.0017867 0.00328771 0)
(-0.00954207 0.0029096 0)
(0.00113491 0.00560799 0)
(-0.000229206 0.00985164 0)
(0.00569995 -0.0102629 0)
(-0.00157217 -0.0140551 0)
(-0.00876979 -0.0222454 0)
(0.00626825 -0.0551326 0)
(-0.00211152 -0.0146714 0)
(0.00746612 0.00207349 0)
(0.00824169 0.0168791 0)
(0.0145147 0.0157265 0)
(0.0141714 0.0128224 0)
(0.0146077 0.010157 0)
(0.0140283 0.0107454 0)
(0.0142559 0.00700912 0)
(0.0103888 0.00830376 0)
(0.0127953 0.00582183 0)
(0.00688463 0.0045106 0)
(0.0121683 0.00730436 0)
(0.00171335 -0.00198976 0)
(0.0127662 0.0075052 0)
(0.000642584 -0.00577546 0)
(0.00926645 -0.000920706 0)
(0.00772841 0.00423198 0)
(0.00810954 0.0137541 0)
(-0.00516238 -0.00112734 0)
(0.00887908 -0.051437 0)
(0.00281152 -0.00934598 0)
(-0.0118295 0.00676584 0)
(-0.00514963 0.00887179 0)
(-0.00240154 0.00366361 0)
(-0.00188271 0.00675073 0)
(1.51369e-05 0.000564632 0)
(-0.00176185 0.00348865 0)
(0.00321554 0.00118941 0)
(-0.00415341 0.00131617 0)
(0.00663377 0.00171899 0)
(-0.00550958 1.39455e-05 0)
(0.00664047 0.00266364 0)
(-0.000869814 0.0011826 0)
(-3.17392e-05 0.00316255 0)
(0.00278719 0.00812676 0)
(-0.00428275 0.00140312 0)
(-0.00992661 -0.0121363 0)
(0.0145994 -0.00199695 0)
(-0.00487759 -0.0270939 0)
(0.00767036 -0.0542603 0)
(-0.00542544 -0.00989841 0)
(0.000731356 0.0111158 0)
(0.00839244 0.00770411 0)
(0.00389594 0.0100445 0)
(0.0103994 0.00998553 0)
(0.00875504 0.00887622 0)
(0.0121505 0.00648874 0)
(0.0111495 0.00766243 0)
(0.0136327 0.00584047 0)
(0.0126344 0.00589894 0)
(0.0139341 0.00593964 0)
(0.0133036 0.00438292 0)
(0.0114117 0.0046767 0)
(0.0166988 0.00659688 0)
(0.00648579 -0.00256512 0)
(0.0213921 0.0109979 0)
(0.00626197 -0.0090805 0)
(0.0117915 0.00791982 0)
(-0.00178022 0.0132897 0)
(0.0138674 -0.0463819 0)
(-0.019902 -0.00340283 0)
(-0.0113581 -0.00398208 0)
(-0.0207521 0.00295449 0)
(-0.0113282 0.00183171 0)
(-0.0156829 0.00234856 0)
(-0.00837693 -6.41711e-05 0)
(-0.014164 0.00172118 0)
(-0.00557961 0.000495787 0)
(-0.0131031 0.000402776 0)
(-0.0033334 0.000594042 0)
(-0.0131629 0.000411377 0)
(0.00122244 0.0016222 0)
(-0.0130481 -0.00124413 0)
(0.00508394 0.00665479 0)
(-0.00759736 9.92493e-05 0)
(-2.18728e-05 0.00562477 0)
(0.00423743 -0.00308073 0)
(-0.0147544 -0.0010549 0)
(0.018898 -0.0306924 0)
(0.0131314 -0.0530092 0)
(0.000451711 0.0168711 0)
(0.0151341 0.0137475 0)
(0.0111886 0.00872999 0)
(0.0232094 0.00660579 0)
(0.022253 0.00517204 0)
(0.0278 0.00645529 0)
(0.0316599 0.00535773 0)
(0.0325132 0.00455563 0)
(0.0378513 0.00480678 0)
(0.0381255 0.00445167 0)
(0.0423721 0.00421953 0)
(0.0421112 0.00303789 0)
(0.046837 0.0039453 0)
(0.0464559 0.00105991 0)
(0.0498644 0.00327011 0)
(0.0517464 -0.000195558 0)
(0.0520977 0.00263094 0)
(0.0522402 -0.000571917 0)
(0.0457287 -0.00497745 0)
(0.0251838 -0.000458571 0)
)
;

boundaryField
{
    movingWall
    {
        type            fixedValue;
        value           uniform (1 0 0);
    }
    fixedWalls
    {
        type            noSlip;
    }
    frontAndBack
    {
        type            empty;
    }
}


// ************************************************************************* //
