/*--------------------------------*- C++ -*----------------------------------*\
| =========                 |                                                 |
| \\      /  F ield         | OpenFOAM: The Open Source CFD Toolbox           |
|  \\    /   O peration     | Version:  5.x                                   |
|   \\  /    A nd           | Web:      www.OpenFOAM.org                      |
|    \\/     M anipulation  |                                                 |
\*---------------------------------------------------------------------------*/
FoamFile
{
    version     2.0;
    format      ascii;
    class       volVectorField;
    location    "17.9";
    object      U;
}
// * * * * * * * * * * * * * * * * * * * * * * * * * * * * * * * * * * * * * //

dimensions      [0 1 -1 0 0 0 0];

internalField   nonuniform List<vector> 
400
(
(-0.017357 0.0115061 0)
(-0.0424179 0.00763361 0)
(-0.0512635 0.0028961 0)
(-0.0582883 0.0015721 0)
(-0.0597621 -0.00085935 0)
(-0.0623159 -0.000380369 0)
(-0.0615075 -0.00176115 0)
(-0.0629558 -0.000920458 0)
(-0.0618245 -0.00168746 0)
(-0.0630986 -0.000875847 0)
(-0.0614583 -0.00148674 0)
(-0.0622218 -0.000816675 0)
(-0.0599227 -0.00174475 0)
(-0.0620168 -0.000998137 0)
(-0.0593216 -0.00190945 0)
(-0.0616158 -0.00178075 0)
(-0.0556366 -0.0038287 0)
(-0.0540903 -0.0069922 0)
(-0.0474317 -0.012427 0)
(-0.00449791 -0.0205065 0)
(-0.0119195 0.037589 0)
(-0.022297 0.0265676 0)
(-0.0241396 0.0123164 0)
(-0.0286797 0.00735831 0)
(-0.0255647 0.00275681 0)
(-0.0304499 0.00248249 0)
(-0.0256089 0.000696645 0)
(-0.0317105 0.00174944 0)
(-0.0256963 0.000437014 0)
(-0.0339787 0.00134152 0)
(-0.0259918 -0.000157552 0)
(-0.034743 0.000354202 0)
(-0.0224052 -0.000795711 0)
(-0.0342252 0.00027009 0)
(-0.0228824 0.000231912 0)
(-0.033936 -0.000565118 0)
(-0.0252821 -0.00203294 0)
(-0.0290361 -0.0133075 0)
(-0.0355976 -0.0264251 0)
(-0.0032762 -0.0464508 0)
(-0.00606096 0.0490841 0)
(-0.0107472 0.0294682 0)
(-0.0111671 0.013446 0)
(-0.0108762 0.00494335 0)
(-0.00994086 0.00140822 0)
(-0.0123106 9.50821e-05 0)
(-0.00923795 -0.000896787 0)
(-0.0152013 -0.000202986 0)
(-0.01062 -0.000339507 0)
(-0.0175781 -0.000114275 0)
(-0.0119689 -0.000797086 0)
(-0.0171376 -0.00240005 0)
(-0.0121569 -0.00232656 0)
(-0.0171851 -0.00161468 0)
(-0.0153515 1.56284e-05 0)
(-0.0127836 -0.000558463 0)
(-0.0146099 -0.00327485 0)
(0.000200022 0.000807393 0)
(-0.012361 -0.0179193 0)
(-0.00107556 -0.0578284 0)
(-0.00565433 0.0535132 0)
(-0.00469854 0.0341087 0)
(-0.00516422 0.0110582 0)
(-0.00435245 0.00632885 0)
(-0.00251172 0.0024298 0)
(-0.00516036 0.00229485 0)
(-0.0029275 0.00250903 0)
(-0.00737106 0.00303804 0)
(-0.00423461 0.00259518 0)
(-0.00848581 0.00203809 0)
(-0.00471114 1.91685e-05 0)
(-0.0085143 -0.000683701 0)
(-0.00713305 -0.000400676 0)
(-0.00831658 0.00146139 0)
(-0.0120026 -0.0021078 0)
(-0.0131809 -0.00537563 0)
(-0.0155117 -0.0157688 0)
(-0.00901822 -0.0175142 0)
(-0.00975282 -0.0280237 0)
(0.00178954 -0.0625468 0)
(-0.00179734 0.0566822 0)
(-0.00183764 0.0320337 0)
(-0.0023231 0.0111716 0)
(-0.000930924 0.00331424 0)
(0.000150903 0.00192497 0)
(-0.00147853 0.00118337 0)
(-0.00109012 0.00154591 0)
(-0.00286419 0.00146166 0)
(-0.0019872 0.00127401 0)
(-0.00374098 0.000399021 0)
(-0.00325717 -0.000124901 0)
(-0.00410389 0.00032634 0)
(-0.00336421 -0.00150766 0)
(-0.00232309 0.00156885 0)
(-0.0075734 0.00641631 0)
(-0.000986679 0.00183612 0)
(-0.00782569 -0.00227462 0)
(0.000573007 -0.00995137 0)
(-0.00207941 -0.021165 0)
(0.000201945 -0.0652923 0)
(-0.00358165 0.0577363 0)
(-0.00018903 0.0346892 0)
(-0.00271155 0.0101817 0)
(8.97852e-05 0.00381993 0)
(-0.000950205 0.00288092 0)
(-0.00151843 0.00365898 0)
(-0.000879893 0.00331171 0)
(-0.00208694 0.00348628 0)
(-0.00213311 0.00334738 0)
(-0.00185832 0.00263424 0)
(-0.00247312 0.000589756 0)
(-0.00625525 -0.00076509 0)
(-0.00568646 -0.00282974 0)
(0.00180198 0.00576396 0)
(-0.00453056 -0.00220224 0)
(0.00544167 -0.00531031 0)
(-0.00476557 -0.0179251 0)
(-0.00362712 -0.0222575 0)
(-0.00341102 -0.0310461 0)
(0.00274651 -0.0663103 0)
(-4.54178e-05 0.0579841 0)
(-0.00018818 0.0321038 0)
(0.000467217 0.00832339 0)
(-0.000733145 0.00159906 0)
(3.91306e-05 0.00268974 0)
(0.000165483 0.000973781 0)
(-0.000341069 0.00197656 0)
(-0.000391237 0.00290248 0)
(-0.00208972 0.00113198 0)
(-0.00190731 0.000690034 0)
(-0.0020321 0.00477347 0)
(-0.000335898 0.00390992 0)
(-0.000588086 -0.00808748 0)
(0.00447142 -0.00101338 0)
(-0.00686793 0.00339906 0)
(0.00774549 0.000745214 0)
(-0.0037206 0.00872228 0)
(0.00399167 -0.013953 0)
(-0.000740372 -0.0224655 0)
(0.00117893 -0.0673821 0)
(-0.0025949 0.0584987 0)
(0.0015716 0.033708 0)
(-0.000802331 0.012532 0)
(0.00228004 0.00486901 0)
(9.82597e-05 0.00268957 0)
(0.00125562 0.00447426 0)
(-0.00117439 0.00466908 0)
(-0.00253595 0.00497405 0)
(-0.00234479 0.00613389 0)
(-0.00292945 0.00233585 0)
(-0.00897408 -0.00116223 0)
(-0.00319439 -0.00318294 0)
(-2.72097e-05 -0.0068808 0)
(-0.000341229 0.0102505 0)
(-0.00735067 -0.00540529 0)
(0.000575444 -0.00841383 0)
(-0.00306731 -0.0130281 0)
(0.00598419 -0.0259496 0)
(-0.00400382 -0.0322586 0)
(0.00285384 -0.0676288 0)
(0.000947474 0.0580655 0)
(-0.00015993 0.0315635 0)
(0.00151869 0.00535594 0)
(-0.000154265 0.000548501 0)
(-0.000241954 0.00269842 0)
(0.00128713 0.00179134 0)
(0.00217717 0.00453961 0)
(0.00365853 0.00411758 0)
(0.00513638 0.000371235 0)
(0.0101716 0.00525896 0)
(-0.0015111 0.00657788 0)
(0.0020924 -0.00542388 0)
(-0.00442148 -0.0123367 0)
(0.000650411 0.0086257 0)
(-0.0105962 0.0038568 0)
(0.0127113 -0.00560237 0)
(-0.00282887 0.00325428 0)
(0.0108639 -0.0141418 0)
(-0.00152056 -0.0141601 0)
(0.00292476 -0.0652024 0)
(-0.00108196 0.0578162 0)
(0.00234836 0.0320617 0)
(0.000972002 0.0137992 0)
(0.00231665 0.00707119 0)
(0.00256693 0.00218231 0)
(0.00248012 0.00194584 0)
(0.00257292 0.00423888 0)
(0.00518318 0.00135006 0)
(-0.00149776 0.00193933 0)
(-0.00202619 0.00925125 0)
(-0.00668983 0.00915403 0)
(-0.0021729 -0.00118505 0)
(-0.00682457 -0.00152119 0)
(-0.00712411 0.0117539 0)
(-0.0128656 -0.0176518 0)
(0.00287617 -0.0157854 0)
(-0.00371131 -0.00874553 0)
(0.00329534 -0.0272243 0)
(-0.00400129 -0.0263905 0)
(0.00441068 -0.0683323 0)
(0.00153679 0.0559536 0)
(0.00126746 0.0309214 0)
(0.0026644 0.00452348 0)
(0.00370193 -0.00201378 0)
(0.00543049 0.00234281 0)
(0.0036634 0.001384 0)
(0.00689982 0.00144968 0)
(0.00571177 0.00755705 0)
(-0.00262757 0.00684145 0)
(-0.00538516 0.0108797 0)
(-0.00650408 0.00392061 0)
(-0.00415543 -0.00586367 0)
(-0.00682007 -0.0117527 0)
(-0.000956749 0.0174609 0)
(0.00109346 -0.00909869 0)
(-0.00273778 -0.0156256 0)
(-0.00314845 0.000773446 0)
(-0.00322119 -0.0148748 0)
(-0.00483649 -0.0133286 0)
(0.00465436 -0.067086 0)
(8.60638e-05 0.0557928 0)
(0.00310575 0.0314538 0)
(0.00110017 0.0125215 0)
(0.00466247 0.00475347 0)
(-0.00111158 0.00287405 0)
(4.60212e-05 -0.000418586 0)
(0.000748694 0.00332567 0)
(0.00551435 0.0098959 0)
(0.00347313 0.0119822 0)
(0.00148279 0.0120325 0)
(0.000856685 0.0090816 0)
(-0.00102775 0.00116231 0)
(-0.00525689 -0.00502209 0)
(-0.00734505 0.00928612 0)
(0.00823336 -0.0130613 0)
(-0.00801042 -0.00938978 0)
(-0.00247287 -0.00475454 0)
(0.00826623 -0.0284439 0)
(-0.0063478 -0.0349588 0)
(0.00466626 -0.0694052 0)
(0.00123884 0.0515498 0)
(0.00139163 0.028336 0)
(0.00352194 0.00130091 0)
(-0.00260226 -0.00080157 0)
(-0.0025266 0.00675984 0)
(-0.00142123 -0.000575561 0)
(-0.00482911 -0.00455456 0)
(-0.00272483 0.0072088 0)
(0.0030468 0.00970988 0)
(0.00327295 0.0161342 0)
(0.00470319 0.00728686 0)
(-0.00171592 0.0010047 0)
(0.00272243 -0.00660316 0)
(-0.0111107 0.00139564 0)
(0.0130206 -0.0119067 0)
(0.000345934 -0.00913691 0)
(0.00398955 -0.0149893 0)
(0.0115936 -0.0125214 0)
(-0.00390163 -0.00920038 0)
(0.00667137 -0.0635243 0)
(0.00104917 0.0526852 0)
(0.00447872 0.0311524 0)
(0.00280986 0.0178168 0)
(0.00470751 0.0116489 0)
(-0.000406684 0.003458 0)
(0.0010793 0.000801932 0)
(-0.00179876 0.00520463 0)
(-0.000195141 0.00299883 0)
(0.000520767 0.0063987 0)
(0.00384695 0.0109244 0)
(0.00912619 0.011059 0)
(0.00251679 0.00316 0)
(0.00494035 0.00248488 0)
(0.000792076 -0.00032902 0)
(0.0103202 -0.0191223 0)
(0.003384 -0.000948658 0)
(0.010113 -0.0104255 0)
(0.0083218 -0.0212726 0)
(-0.0046117 -0.0230722 0)
(0.00854171 -0.0691811 0)
(0.000901078 0.0467265 0)
(0.00303564 0.0258936 0)
(0.00417557 0.00130228 0)
(0.00160207 0.000118708 0)
(0.0124483 0.00886124 0)
(0.00299487 0.0019758 0)
(0.0155638 -0.00441404 0)
(0.00586963 0.00370345 0)
(0.00966805 0.00422471 0)
(0.0174064 0.00679792 0)
(0.0136327 0.0109125 0)
(0.0220015 0.00468823 0)
(0.0151544 -0.00339511 0)
(0.0223956 -0.00774714 0)
(0.0198504 -0.0140575 0)
(0.0222068 -0.0153264 0)
(0.0113999 -0.0186903 0)
(0.00140378 -0.00162896 0)
(-0.0104607 -0.0144151 0)
(0.00810346 -0.0657361 0)
(0.00142507 0.0474896 0)
(0.00655292 0.0264314 0)
(0.0062369 0.0202777 0)
(0.00793197 0.00382197 0)
(-0.00112525 0.00427761 0)
(0.0164271 -0.00258334 0)
(0.00539207 0.000913709 0)
(0.00950415 0.0114714 0)
(0.0155973 -0.00644269 0)
(0.0178525 0.00693879 0)
(0.0231904 0.00827427 0)
(0.0217443 0.00429182 0)
(0.0253657 0.0033013 0)
(0.0225366 -0.00543257 0)
(0.00866379 -0.0106363 0)
(0.0160398 0.00707809 0)
(-0.0197287 0.0141985 0)
(0.0136289 -0.00366687 0)
(-0.00466259 -0.0200102 0)
(0.0104907 -0.0677458 0)
(2.3923e-05 0.0399949 0)
(0.00712908 0.021311 0)
(0.00199825 0.00229838 0)
(0.0114505 0.00452102 0)
(0.00119382 0.000547004 0)
(0.0101966 -0.00267604 0)
(0.00500765 -0.000541053 0)
(0.0131715 -0.00266522 0)
(0.028708 -0.00675495 0)
(0.0149056 -0.00335248 0)
(0.0317319 0.00747776 0)
(0.0121769 -0.00204917 0)
(0.0301229 -0.000641655 0)
(0.00741099 0.00199516 0)
(0.0106441 -0.00784303 0)
(-0.00695007 0.00597645 0)
(0.00671729 -0.0131648 0)
(0.0194901 -0.0215959 0)
(-0.00634183 -0.0166608 0)
(0.0103998 -0.0645693 0)
(0.0023793 0.0386453 0)
(0.0112459 0.0221554 0)
(0.0145672 0.0149699 0)
(0.00852217 0.0071614 0)
(0.0192194 0.0030442 0)
(0.00811387 -0.00453492 0)
(0.0258752 -0.00569525 0)
(0.00970277 -0.0120865 0)
(0.0312423 -0.00535312 0)
(0.001096 0.0036272 0)
(0.0344721 0.0123083 0)
(0.0110526 0.00969148 0)
(0.0309689 0.00626589 0)
(0.0170977 0.0154606 0)
(0.0317851 0.00463956 0)
(0.0144936 0.0158728 0)
(0.0263014 -0.00908377 0)
(0.00762213 0.0107435 0)
(-0.00132918 -0.000567826 0)
(0.0154606 -0.0635495 0)
(0.00321167 0.0275868 0)
(0.0152907 0.0147672 0)
(0.015449 0.00470477 0)
(0.0204945 0.0012385 0)
(0.0153885 -0.000903609 0)
(0.0133538 -0.00402837 0)
(0.00272674 -0.00394486 0)
(-0.00718572 -0.00338664 0)
(-0.0201728 -0.00402907 0)
(-0.0198802 -0.00419025 0)
(-0.0170855 -0.00273221 0)
(-0.0120918 -0.00503546 0)
(-0.0165076 -0.00449913 0)
(-0.00569508 0.0038733 0)
(-0.00660668 -0.00839795 0)
(-0.0031444 0.00785453 0)
(0.00885357 -0.00672918 0)
(-0.013093 -4.52876e-05 0)
(0.0227489 -0.033886 0)
(0.0144855 -0.0578992 0)
(0.00811121 0.0197018 0)
(0.0333228 0.0119421 0)
(0.0355416 0.0107385 0)
(0.0477443 0.00792802 0)
(0.046322 0.00858483 0)
(0.0547002 0.00727108 0)
(0.0525753 0.00981629 0)
(0.0582744 0.00932312 0)
(0.0583095 0.00909556 0)
(0.0622536 0.00616355 0)
(0.0630751 0.00534146 0)
(0.0621839 0.00504785 0)
(0.0659058 0.00591794 0)
(0.0621053 0.0020348 0)
(0.0667121 0.00451448 0)
(0.0652224 0.00125762 0)
(0.0651571 0.00274242 0)
(0.0663939 -0.000601551 0)
(0.0551743 -0.00654334 0)
(0.037376 -0.0110713 0)
)
;

boundaryField
{
    movingWall
    {
        type            fixedValue;
        value           uniform (1 0 0);
    }
    fixedWalls
    {
        type            noSlip;
    }
    frontAndBack
    {
        type            empty;
    }
}


// ************************************************************************* //
