/*--------------------------------*- C++ -*----------------------------------*\
| =========                 |                                                 |
| \\      /  F ield         | OpenFOAM: The Open Source CFD Toolbox           |
|  \\    /   O peration     | Version:  5.x                                   |
|   \\  /    A nd           | Web:      www.OpenFOAM.org                      |
|    \\/     M anipulation  |                                                 |
\*---------------------------------------------------------------------------*/
FoamFile
{
    version     2.0;
    format      ascii;
    class       surfaceScalarField;
    location    "5.5";
    object      phi;
}
// * * * * * * * * * * * * * * * * * * * * * * * * * * * * * * * * * * * * * //

dimensions      [0 3 -1 0 0 0 0];

internalField   nonuniform List<scalar> 
760
(
-2.70856e-08
2.70856e-08
-5.69735e-08
2.98879e-08
-9.01327e-08
3.31592e-08
-1.29001e-07
3.88681e-08
-1.77267e-07
4.82662e-08
-2.41132e-07
6.38646e-08
-3.31909e-07
9.07769e-08
-4.71656e-07
1.39747e-07
-7.05021e-07
2.33366e-07
-1.11274e-06
4.07723e-07
-1.76107e-06
6.48327e-07
-2.47496e-06
7.13884e-07
-2.89034e-06
4.15387e-07
-3.02774e-06
1.37399e-07
-3.10551e-06
7.77666e-08
-3.04566e-06
-5.98482e-08
-2.70717e-06
-3.38493e-07
-2.09507e-06
-6.121e-07
-1.2641e-06
-8.30967e-07
-1.2641e-06
-2.76213e-08
5.4707e-08
-5.79001e-08
6.01667e-08
-9.08948e-08
6.6154e-08
-1.28305e-07
7.62781e-08
-1.72169e-07
9.21304e-08
-2.24923e-07
1.16619e-07
-2.89039e-07
1.54893e-07
-3.65106e-07
2.15814e-07
-4.45434e-07
3.13693e-07
-5.03612e-07
4.65902e-07
-5.28154e-07
6.72869e-07
-6.56623e-07
8.42353e-07
-1.0872e-06
8.45959e-07
-1.62404e-06
6.74245e-07
-1.91353e-06
3.67258e-07
-1.92106e-06
-5.23238e-08
-1.76278e-06
-4.9677e-07
-1.47553e-06
-8.99346e-07
-9.58254e-07
-1.34825e-06
-2.22235e-06
-2.49095e-08
7.96164e-08
-5.2077e-08
8.73341e-08
-8.10424e-08
9.51194e-08
-1.12723e-07
1.07959e-07
-1.47878e-07
1.27285e-07
-1.86794e-07
1.55534e-07
-2.28307e-07
1.96405e-07
-2.67634e-07
2.55141e-07
-2.92221e-07
3.38281e-07
-2.77747e-07
4.51427e-07
-1.98092e-07
5.93215e-07
-8.44568e-08
7.28718e-07
-3.14614e-08
7.92964e-07
-6.10627e-08
7.03847e-07
-1.48408e-07
4.54603e-07
-2.76794e-07
7.60614e-08
-3.83369e-07
-3.90194e-07
-4.85772e-07
-7.96943e-07
-3.40704e-07
-1.49332e-06
-2.56306e-06
-2.11199e-08
1.00736e-07
-4.4092e-08
1.10306e-07
-6.79728e-08
1.19e-07
-9.30012e-08
1.32987e-07
-1.18935e-07
1.53219e-07
-1.44724e-07
1.81324e-07
-1.67797e-07
2.19478e-07
-1.82865e-07
2.70209e-07
-1.80309e-07
3.35725e-07
-1.44093e-07
4.15211e-07
-5.71095e-08
5.06232e-07
8.799e-08
5.83618e-07
2.53854e-07
6.271e-07
3.84939e-07
5.72762e-07
4.15772e-07
4.2377e-07
3.56081e-07
1.35753e-07
1.72907e-07
-2.0702e-07
-6.80227e-09
-6.17234e-07
-1.3174e-07
-1.36838e-06
-2.6948e-06
-1.6805e-08
1.17541e-07
-3.51499e-08
1.28651e-07
-5.37538e-08
1.37604e-07
-7.23566e-08
1.5159e-07
-9.01557e-08
1.71018e-07
-1.05579e-07
1.96746e-07
-1.15836e-07
2.29736e-07
-1.16274e-07
2.70647e-07
-1.00463e-07
3.19914e-07
-5.73501e-08
3.72098e-07
1.87887e-08
4.30093e-07
1.35811e-07
4.66596e-07
2.73368e-07
4.89543e-07
4.10632e-07
4.35498e-07
4.79207e-07
3.55195e-07
4.79826e-07
1.35134e-07
3.72055e-07
-9.92492e-08
2.25107e-07
-4.70285e-07
7.01544e-08
-1.21343e-06
-2.62464e-06
-1.22987e-08
1.2984e-07
-2.59961e-08
1.42349e-07
-3.96209e-08
1.51229e-07
-5.26232e-08
1.64592e-07
-6.39827e-08
1.82377e-07
-7.20182e-08
2.04782e-07
-7.4385e-08
2.32103e-07
-6.70259e-08
2.63288e-07
-4.7536e-08
3.00425e-07
-6.48856e-09
3.31051e-07
5.22265e-08
3.71378e-07
1.39011e-07
3.79811e-07
2.32563e-07
3.95991e-07
3.35262e-07
3.32798e-07
3.9107e-07
2.99388e-07
4.08163e-07
1.1804e-07
3.30741e-07
-2.18273e-08
1.74276e-07
-3.1382e-07
-4.58844e-08
-9.93265e-07
-2.67053e-06
-7.66975e-09
1.3751e-07
-1.6937e-08
1.51616e-07
-2.60863e-08
1.60378e-07
-3.46315e-08
1.73137e-07
-4.12798e-08
1.89026e-07
-4.44442e-08
2.07946e-07
-4.25763e-08
2.30235e-07
-3.07967e-08
2.51508e-07
-1.17686e-08
2.81397e-07
2.30836e-08
2.96198e-07
6.89541e-08
3.25507e-07
1.3317e-07
3.15595e-07
1.95752e-07
3.33409e-07
2.68285e-07
2.60266e-07
3.01616e-07
2.66056e-07
3.22778e-07
9.68786e-08
2.62415e-07
3.85358e-08
2.09412e-07
-2.60817e-07
1.13259e-07
-8.97113e-07
-2.55727e-06
-3.08537e-09
1.40595e-07
-8.27557e-09
1.56806e-07
-1.36531e-08
1.65756e-07
-1.87245e-08
1.78209e-07
-2.22239e-08
1.92525e-07
-2.20679e-08
2.0779e-07
-1.87815e-08
2.26948e-07
-7.52175e-09
2.40248e-07
1.02898e-08
2.63585e-07
3.7934e-08
2.68554e-07
7.19249e-08
2.91516e-07
1.17542e-07
2.69978e-07
1.58777e-07
2.92174e-07
2.06295e-07
2.12748e-07
2.29325e-07
2.43026e-07
2.50231e-07
7.59728e-08
2.25658e-07
6.31093e-08
1.81855e-07
-2.17014e-07
1.05454e-07
-8.20712e-07
-2.45182e-06
2.51709e-09
1.38078e-07
1.60765e-09
1.57715e-07
-5.56739e-10
1.6792e-07
-3.94663e-09
1.81599e-07
-5.97805e-09
1.94557e-07
-5.62163e-09
2.07434e-07
-1.04305e-09
2.2237e-07
8.00704e-09
2.31198e-07
2.38311e-08
2.47761e-07
4.66274e-08
2.45758e-07
7.34392e-08
2.64704e-07
1.08037e-07
2.3538e-07
1.37163e-07
2.63048e-07
1.71123e-07
1.78788e-07
1.80568e-07
2.33581e-07
1.81854e-07
7.46869e-08
1.26214e-07
1.18749e-07
6.38321e-08
-1.54632e-07
-9.63406e-08
-6.60539e-07
-2.54816e-06
8.23026e-09
1.29848e-07
9.45979e-09
1.56486e-07
8.52481e-09
1.68855e-07
7.15612e-09
1.82967e-07
6.68441e-09
1.95028e-07
7.86312e-09
2.06255e-07
1.23969e-08
2.17836e-07
1.95921e-08
2.24003e-07
3.15078e-08
2.35845e-07
4.69101e-08
2.30355e-07
6.57957e-08
2.45819e-07
8.6092e-08
2.15084e-07
1.05263e-07
2.43877e-07
1.20069e-07
1.63982e-07
1.26779e-07
2.26871e-07
1.30944e-07
7.05214e-08
1.0673e-07
1.42963e-07
8.78305e-08
-1.35733e-07
3.74564e-08
-6.10165e-07
-2.5107e-06
2.07965e-08
1.09051e-07
3.01327e-08
1.4715e-07
3.1573e-08
1.67415e-07
2.55681e-08
1.88972e-07
2.07051e-08
1.99891e-07
1.59748e-08
2.10985e-07
1.72005e-08
2.1661e-07
2.15885e-08
2.19615e-07
3.25688e-08
2.24865e-07
4.5883e-08
2.17041e-07
6.42145e-08
2.27487e-07
8.3275e-08
1.96023e-07
1.03202e-07
2.2395e-07
1.19293e-07
1.47891e-07
1.28233e-07
2.1793e-07
1.15175e-07
8.35797e-08
9.44658e-08
1.63672e-07
4.48498e-08
-8.61167e-08
1.62667e-08
-5.81582e-07
-2.49443e-06
3.30824e-08
7.59689e-08
2.73345e-08
1.52898e-07
2.37796e-08
1.7097e-07
2.34397e-08
1.89312e-07
2.36552e-08
1.99676e-07
2.65552e-08
2.08085e-07
2.91928e-08
2.13973e-07
3.16988e-08
2.17109e-07
3.82585e-08
2.18305e-07
4.29949e-08
2.12305e-07
5.37176e-08
2.16765e-07
5.58395e-08
1.93902e-07
6.82886e-08
2.11501e-07
5.63519e-08
1.59828e-07
6.89954e-08
2.05287e-07
4.25665e-08
1.10009e-07
4.93875e-08
1.56851e-07
1.57901e-08
-5.25194e-08
-4.58039e-09
-5.61211e-07
-2.49901e-06
7.33663e-08
2.60263e-09
1.06107e-07
1.20157e-07
1.00773e-07
1.76304e-07
6.7376e-08
2.22709e-07
4.42883e-08
2.22764e-07
2.21029e-08
2.30271e-07
1.56314e-08
2.20444e-07
1.42901e-08
2.18451e-07
2.35328e-08
2.09062e-07
3.02904e-08
2.05547e-07
4.84775e-08
1.98577e-07
5.74255e-08
1.84953e-07
8.33584e-08
1.85568e-07
8.90394e-08
1.54147e-07
1.13213e-07
1.81113e-07
9.46444e-08
1.28577e-07
8.33531e-08
1.68143e-07
-2.10784e-08
5.19121e-08
-4.36335e-08
-5.38656e-07
-2.54265e-06
1.3149e-07
-1.28888e-07
4.88808e-08
2.02766e-07
3.064e-08
1.94545e-07
4.38538e-08
2.09495e-07
4.66689e-08
2.19948e-07
5.00574e-08
2.26882e-07
4.75232e-08
2.22978e-07
4.28811e-08
2.23093e-07
4.43784e-08
2.07565e-07
4.08911e-08
2.09035e-07
4.63573e-08
1.93111e-07
3.67446e-08
1.94566e-07
4.22911e-08
1.80022e-07
1.08356e-08
1.85603e-07
1.48294e-08
1.77119e-07
-5.70445e-08
2.00451e-07
2.09925e-08
9.01056e-08
8.77425e-09
6.41303e-08
7.84929e-09
-5.37731e-07
-2.5348e-06
2.71438e-07
-4.00325e-07
2.38083e-07
2.36121e-07
1.48782e-07
2.83846e-07
1.35166e-08
3.4476e-07
-4.05599e-08
2.74025e-07
-6.00062e-08
2.46329e-07
-5.19282e-08
2.149e-07
-4.01516e-08
2.11316e-07
-2.33125e-08
1.90726e-07
-1.41035e-08
1.99826e-07
8.39411e-09
1.70614e-07
9.54028e-09
1.9342e-07
4.91863e-08
1.40376e-07
3.07983e-08
2.03991e-07
1.18086e-07
8.98322e-08
1.16789e-07
2.01748e-07
1.04826e-07
1.02068e-07
-7.4413e-09
1.76398e-07
-1.5803e-08
-5.2937e-07
-2.5506e-06
2.40418e-07
-6.40743e-07
2.41333e-07
2.35206e-07
3.29717e-07
1.95461e-07
3.30426e-07
3.44052e-07
2.84238e-07
3.20213e-07
2.18383e-07
3.12184e-07
1.80857e-07
2.52426e-07
1.47193e-07
2.4498e-07
1.301e-07
2.0782e-07
1.13103e-07
2.16822e-07
1.12595e-07
1.71121e-07
9.78611e-08
2.08154e-07
1.12256e-07
1.25981e-07
8.36177e-08
2.32629e-07
1.46201e-08
1.5883e-07
-6.34539e-08
2.79822e-07
6.46478e-08
-2.60334e-08
3.29342e-08
2.08112e-07
4.30871e-08
-5.39522e-07
-2.50751e-06
-1.72713e-07
-4.6803e-07
-5.07436e-07
5.69929e-07
-4.81976e-07
1.70001e-07
-3.94735e-07
2.56811e-07
-3.91995e-07
3.17473e-07
-3.29534e-07
2.49722e-07
-3.14655e-07
2.37548e-07
-2.80191e-07
2.10516e-07
-2.56436e-07
1.84065e-07
-2.29834e-07
1.9022e-07
-2.04855e-07
1.46143e-07
-1.82694e-07
1.85993e-07
-1.67444e-07
1.1073e-07
-1.85581e-07
2.50765e-07
-7.44785e-08
4.77277e-08
-1.70483e-07
3.75827e-07
1.01089e-07
-2.97606e-07
1.88228e-07
1.20972e-07
4.69395e-08
-3.98234e-07
-2.46057e-06
-1.36401e-08
-4.5439e-07
4.01931e-07
1.54358e-07
2.83911e-07
2.88021e-07
3.67245e-07
1.73477e-07
4.34549e-07
2.50168e-07
5.0497e-07
1.79301e-07
5.62282e-07
1.80237e-07
5.94598e-07
1.78199e-07
6.38789e-07
1.39874e-07
6.26511e-07
2.02499e-07
6.3278e-07
1.39874e-07
5.88933e-07
2.2984e-07
5.75819e-07
1.23845e-07
5.21817e-07
3.04767e-07
6.22031e-07
-5.24862e-08
5.24598e-07
4.73259e-07
3.1115e-07
-8.4158e-08
1.88733e-07
2.4339e-07
2.54594e-07
-4.64095e-07
-2.20598e-06
-8.04962e-07
3.50573e-07
-9.28059e-07
2.77455e-07
-9.03985e-07
2.63947e-07
-8.88489e-07
1.57981e-07
-8.217e-07
1.83379e-07
-7.87938e-07
1.45539e-07
-7.55354e-07
1.47652e-07
-7.0697e-07
1.29815e-07
-6.68845e-07
1.01749e-07
-6.00032e-07
1.33685e-07
-5.58276e-07
9.81182e-08
-4.58248e-07
1.29811e-07
-4.09587e-07
7.5185e-08
-2.1334e-07
1.0852e-07
-3.11348e-07
4.55209e-08
-4.66425e-09
1.66576e-07
-5.03398e-08
-3.84825e-08
2.11721e-07
-1.86703e-08
6.6628e-07
-9.18655e-07
-1.5397e-06
3.50573e-07
6.28028e-07
8.91975e-07
1.04996e-06
1.23333e-06
1.37887e-06
1.52653e-06
1.65634e-06
1.75809e-06
1.89178e-06
1.98989e-06
2.1197e-06
2.19489e-06
2.30341e-06
2.34893e-06
2.51551e-06
2.47702e-06
2.45835e-06
1.5397e-06
)
;

boundaryField
{
    movingWall
    {
        type            calculated;
        value           uniform 0;
    }
    fixedWalls
    {
        type            calculated;
        value           uniform 0;
    }
    frontAndBack
    {
        type            empty;
        value           nonuniform 0();
    }
}


// ************************************************************************* //
