/*--------------------------------*- C++ -*----------------------------------*\
| =========                 |                                                 |
| \\      /  F ield         | OpenFOAM: The Open Source CFD Toolbox           |
|  \\    /   O peration     | Version:  5.x                                   |
|   \\  /    A nd           | Web:      www.OpenFOAM.org                      |
|    \\/     M anipulation  |                                                 |
\*---------------------------------------------------------------------------*/
FoamFile
{
    version     2.0;
    format      ascii;
    class       volScalarField;
    location    "7.7";
    object      p;
}
// * * * * * * * * * * * * * * * * * * * * * * * * * * * * * * * * * * * * * //

dimensions      [0 2 -2 0 0 0 0];

internalField   nonuniform List<scalar> 
400
(
-1.06547e-10
-0.000378061
-0.000893656
-0.00137529
-0.00166619
-0.00176115
-0.00169595
-0.00149064
-0.00133081
-0.00125695
-0.00114243
-0.00103651
-0.00102067
-0.00105175
-0.00108341
-0.00106334
-0.000990515
-0.000816323
-0.000564591
0.000274939
-0.000307274
-0.000701592
-0.00121494
-0.00174729
-0.00192908
-0.00193963
-0.00183096
-0.00153355
-0.00131359
-0.00126307
-0.00116977
-0.00104457
-0.00102636
-0.00106353
-0.00111303
-0.0011143
-0.00114312
-0.00108723
-0.000987976
-0.000428328
-0.00091654
-0.00125008
-0.00161095
-0.00191881
-0.00205023
-0.00202346
-0.00185391
-0.00158057
-0.00136645
-0.00124392
-0.0011508
-0.00107249
-0.00106062
-0.00106368
-0.0011175
-0.00110513
-0.00115417
-0.00112144
-0.00108873
-0.000813182
-0.00114597
-0.00134949
-0.00160616
-0.00184212
-0.00194812
-0.00191476
-0.00176094
-0.00154659
-0.00136854
-0.00125414
-0.00119438
-0.00112558
-0.00111152
-0.00109814
-0.00112643
-0.00111283
-0.00113552
-0.00110596
-0.00113304
-0.00100489
-0.00112548
-0.00125383
-0.00142884
-0.00158351
-0.00165478
-0.00163645
-0.00156338
-0.00144152
-0.00132823
-0.00124147
-0.00119448
-0.00113905
-0.00113515
-0.00111337
-0.00114139
-0.00112286
-0.00115629
-0.00112222
-0.00116032
-0.00108429
-0.00109885
-0.00117735
-0.00129026
-0.00139381
-0.00145391
-0.00146083
-0.00142243
-0.00136145
-0.00129555
-0.00123416
-0.00120144
-0.00115753
-0.00115639
-0.00112778
-0.00115131
-0.00112425
-0.00115932
-0.00112067
-0.00117532
-0.00112955
-0.00109387
-0.00114047
-0.00121154
-0.00128139
-0.00132987
-0.0013472
-0.0013381
-0.00130177
-0.00126309
-0.00122282
-0.00120091
-0.00116821
-0.00117056
-0.00114498
-0.0011644
-0.00114179
-0.00116916
-0.00114303
-0.0011786
-0.00114948
-0.00109702
-0.00112712
-0.00117413
-0.00122229
-0.00125814
-0.00127392
-0.0012721
-0.00125406
-0.0012325
-0.00120498
-0.00119251
-0.00116309
-0.00117109
-0.0011399
-0.00116653
-0.0011328
-0.00117237
-0.00113349
-0.00118811
-0.00115164
-0.0010995
-0.00112207
-0.00115591
-0.00119046
-0.00121812
-0.00123393
-0.00123836
-0.00123293
-0.00122198
-0.00120444
-0.0011972
-0.0011769
-0.00118208
-0.00116047
-0.00117806
-0.00115383
-0.00118348
-0.00115284
-0.00120289
-0.00116327
-0.00109964
-0.00112204
-0.00114849
-0.00117501
-0.0011949
-0.00120528
-0.00120827
-0.00120245
-0.00119629
-0.00118123
-0.00118069
-0.00116013
-0.00117215
-0.00114573
-0.00117219
-0.00113902
-0.00118049
-0.00113913
-0.00119518
-0.00115239
-0.0010958
-0.00112119
-0.0011455
-0.00116698
-0.00118375
-0.00119505
-0.00120041
-0.00120097
-0.00119874
-0.00119189
-0.00119065
-0.00117857
-0.00118525
-0.00116874
-0.00118523
-0.00115897
-0.00118936
-0.00114584
-0.00120657
-0.00114108
-0.00108779
-0.00113232
-0.00114999
-0.00116894
-0.00117781
-0.00118097
-0.00118388
-0.00117942
-0.00117844
-0.00116823
-0.00117073
-0.00115573
-0.00116505
-0.0011448
-0.00116592
-0.00113729
-0.00118091
-0.00113576
-0.00118389
-0.00114087
-0.00110971
-0.00115309
-0.00115847
-0.00116931
-0.00118021
-0.00118942
-0.00119095
-0.00119094
-0.00118789
-0.00118492
-0.00118325
-0.0011788
-0.0011829
-0.00117379
-0.00119231
-0.00116424
-0.00118932
-0.00114451
-0.00122391
-0.0011317
-0.00116015
-0.00124303
-0.00116802
-0.0011917
-0.00119067
-0.00118543
-0.00117836
-0.00117015
-0.00116854
-0.00116234
-0.00116371
-0.00115644
-0.00115726
-0.00114697
-0.00114019
-0.00113898
-0.00117226
-0.00111471
-0.00114063
-0.00111808
-0.00121496
-0.00125174
-0.00118833
-0.00119966
-0.00119639
-0.00118431
-0.00117456
-0.00117879
-0.00117448
-0.00117972
-0.00117094
-0.00118479
-0.00116487
-0.00118094
-0.00119816
-0.00117958
-0.00122743
-0.00114209
-0.00123192
-0.0011273
-0.00131507
-0.00125039
-0.00121263
-0.00120032
-0.00120089
-0.00117041
-0.00117868
-0.00117158
-0.00117558
-0.00116747
-0.00117038
-0.00116305
-0.00116741
-0.00118533
-0.00114624
-0.0011195
-0.00113125
-0.00112407
-0.0011307
-0.00109162
-0.00113052
-0.0012617
-0.0012123
-0.0011796
-0.00119199
-0.00116257
-0.0011725
-0.00116334
-0.00117108
-0.00117414
-0.00118112
-0.00117916
-0.00116931
-0.00120952
-0.00114442
-0.00119921
-0.00123423
-0.00113406
-0.00123413
-0.00107173
-0.0011022
-0.00128839
-0.00121168
-0.00117819
-0.00118481
-0.00115902
-0.00116683
-0.00116125
-0.00116636
-0.00116184
-0.00115775
-0.00114906
-0.00115623
-0.00115923
-0.00117384
-0.00123518
-0.00118414
-0.0010933
-0.00100911
-0.000899281
-0.00106046
-0.00119552
-0.00121134
-0.0011864
-0.00116736
-0.0011522
-0.0011499
-0.0011556
-0.00115994
-0.00116338
-0.00117965
-0.00114213
-0.00120432
-0.00113018
-0.00119874
-0.00122345
-0.00115681
-0.00122369
-0.00109765
-0.000603636
-0.00120906
-0.00115496
-0.00113137
-0.00120482
-0.0011481
-0.00114911
-0.00114853
-0.00115275
-0.00115055
-0.00115843
-0.00114663
-0.00113547
-0.00111751
-0.00108436
-0.00114874
-0.00116757
-0.0011649
-0.000931437
-0.000466651
0.000748812
)
;

boundaryField
{
    movingWall
    {
        type            zeroGradient;
    }
    fixedWalls
    {
        type            zeroGradient;
    }
    frontAndBack
    {
        type            empty;
    }
}


// ************************************************************************* //
