/*--------------------------------*- C++ -*----------------------------------*\
| =========                 |                                                 |
| \\      /  F ield         | OpenFOAM: The Open Source CFD Toolbox           |
|  \\    /   O peration     | Version:  5.x                                   |
|   \\  /    A nd           | Web:      www.OpenFOAM.org                      |
|    \\/     M anipulation  |                                                 |
\*---------------------------------------------------------------------------*/
FoamFile
{
    version     2.0;
    format      ascii;
    class       surfaceScalarField;
    location    "7.7";
    object      phi;
}
// * * * * * * * * * * * * * * * * * * * * * * * * * * * * * * * * * * * * * //

dimensions      [0 3 -1 0 0 0 0];

internalField   nonuniform List<scalar> 
760
(
-8.93067e-07
8.93067e-07
-1.6133e-06
7.20229e-07
-2.43239e-06
8.19093e-07
-2.8685e-06
4.36115e-07
-2.92787e-06
5.93618e-08
-3.03709e-06
1.09225e-07
-2.82051e-06
-2.16583e-07
-2.51523e-06
-3.05282e-07
-2.49151e-06
-2.37198e-08
-2.44272e-06
-4.8784e-08
-2.22885e-06
-2.13876e-07
-2.10251e-06
-1.26331e-07
-2.15123e-06
4.87105e-08
-2.20358e-06
5.23498e-08
-2.23622e-06
3.26406e-08
-2.19885e-06
-3.73652e-08
-2.15032e-06
-4.8533e-08
-1.86272e-06
-2.87601e-07
-1.26741e-06
-5.95305e-07
-1.26741e-06
-9.59857e-07
1.85292e-06
-1.65315e-06
1.41352e-06
-1.87592e-06
1.04186e-06
-2.0992e-06
6.59395e-07
-2.29775e-06
2.57919e-07
-2.14006e-06
-4.84739e-08
-2.01291e-06
-3.43728e-07
-1.86389e-06
-4.54302e-07
-1.50619e-06
-3.81421e-07
-1.19815e-06
-3.56826e-07
-1.08797e-06
-3.24058e-07
-1.00305e-06
-2.11249e-07
-9.1223e-07
-4.21081e-08
-8.53141e-07
-6.73841e-09
-9.13103e-07
9.26022e-08
-9.44754e-07
-5.71428e-09
-1.01987e-06
2.65844e-08
-1.00694e-06
-3.00536e-07
-8.32489e-07
-7.69753e-07
-2.0999e-06
-1.59229e-07
2.01215e-06
-4.07196e-07
1.66149e-06
-6.10667e-07
1.24533e-06
-7.30047e-07
7.78775e-07
-7.76988e-07
3.0486e-07
-7.57535e-07
-6.7927e-08
-7.21065e-07
-3.80198e-07
-6.52169e-07
-5.23199e-07
-5.32174e-07
-5.01415e-07
-4.47281e-07
-4.41719e-07
-4.10892e-07
-3.60447e-07
-3.48091e-07
-2.7405e-07
-2.72067e-07
-1.18132e-07
-2.00741e-07
-7.80637e-08
-1.49159e-07
4.10195e-08
-9.99833e-08
-5.48895e-08
-7.58394e-08
2.44058e-09
-1.15819e-07
-2.60557e-07
-2.38975e-07
-6.46596e-07
-2.33888e-06
2.71475e-07
1.74068e-06
3.97705e-07
1.53526e-06
4.48962e-07
1.19407e-06
4.53348e-07
7.7439e-07
4.14341e-07
3.43866e-07
3.50523e-07
-4.10878e-09
2.64614e-07
-2.94289e-07
1.68575e-07
-4.2716e-07
1.01271e-07
-4.34111e-07
4.53648e-08
-3.85813e-07
-2.94098e-09
-3.12141e-07
-4.50606e-08
-2.3193e-07
-6.15123e-08
-1.01681e-07
-5.69283e-08
-8.26478e-08
-4.72414e-08
3.13326e-08
-4.20015e-08
-6.01294e-08
-3.84958e-08
-1.06519e-09
-9.41406e-08
-2.04912e-07
-1.23652e-07
-6.17085e-07
-2.46253e-06
3.67057e-07
1.37362e-06
6.34308e-07
1.26801e-06
8.00437e-07
1.02794e-06
8.60624e-07
7.14202e-07
8.2499e-07
3.79501e-07
7.3474e-07
8.61409e-08
5.77578e-07
-1.37127e-07
4.07107e-07
-2.56689e-07
2.57245e-07
-2.84248e-07
1.38109e-07
-2.66678e-07
4.17608e-08
-2.15793e-07
-1.62807e-08
-1.73889e-07
-2.54485e-08
-9.25129e-08
-1.98856e-08
-8.82107e-08
7.19276e-09
4.25427e-09
1.0965e-08
-6.39016e-08
-4.06764e-09
1.39674e-08
-2.5851e-08
-1.83128e-07
-4.6159e-08
-5.96777e-07
-2.50869e-06
3.17002e-07
1.05662e-06
5.76319e-07
1.00869e-06
7.53762e-07
8.50501e-07
8.35255e-07
6.3271e-07
8.2243e-07
3.92326e-07
7.38055e-07
1.70516e-07
6.04918e-07
-3.99017e-09
4.58249e-07
-1.1002e-07
3.2534e-07
-1.51338e-07
2.25065e-07
-1.66403e-07
1.40626e-07
-1.31354e-07
9.03254e-08
-1.23588e-07
5.14848e-08
-5.36723e-08
3.00928e-08
-6.68187e-08
2.11512e-08
1.3196e-08
3.49724e-09
-4.62477e-08
-1.10247e-09
1.85671e-08
-3.66987e-08
-1.47532e-07
-1.77401e-08
-6.15736e-07
-2.52643e-06
2.40803e-07
8.15816e-07
4.50658e-07
7.98837e-07
6.04604e-07
6.96556e-07
6.86742e-07
5.50571e-07
6.95676e-07
3.83392e-07
6.43775e-07
2.22417e-07
5.47524e-07
9.22603e-08
4.40045e-07
-2.54104e-09
3.34969e-07
-4.62619e-08
2.50703e-07
-8.21374e-08
1.76587e-07
-5.72381e-08
1.28863e-07
-7.58634e-08
9.05714e-08
-1.53811e-08
6.92437e-08
-4.54911e-08
5.09052e-08
3.15345e-08
2.67816e-08
-2.21241e-08
3.41161e-09
4.19371e-08
-2.88668e-08
-1.15254e-07
-2.0303e-08
-6.243e-07
-2.54673e-06
1.86328e-07
6.29488e-07
3.44427e-07
6.40738e-07
4.61623e-07
5.7936e-07
5.29807e-07
4.82387e-07
5.43959e-07
3.6924e-07
5.16246e-07
2.5013e-07
4.54314e-07
1.54193e-07
3.81369e-07
7.04037e-08
3.01742e-07
3.33649e-08
2.34237e-07
-1.4632e-08
1.71987e-07
5.01161e-09
1.2703e-07
-3.09061e-08
8.73586e-08
2.42901e-08
6.32271e-08
-2.13595e-08
4.18086e-08
5.2953e-08
2.61864e-08
-6.50187e-09
1.03782e-08
5.77454e-08
-7.7081e-09
-9.71676e-08
-3.63382e-09
-6.28374e-07
-2.55036e-06
1.47813e-07
4.81675e-07
2.80046e-07
5.08504e-07
3.81608e-07
4.77798e-07
4.40618e-07
4.23378e-07
4.59784e-07
3.50074e-07
4.43112e-07
2.66802e-07
4.0223e-07
1.95074e-07
3.49691e-07
1.22943e-07
2.91496e-07
9.156e-08
2.40169e-07
3.66951e-08
1.92787e-07
5.23932e-08
1.57777e-07
4.10396e-09
1.28161e-07
5.39062e-08
1.01593e-07
5.20883e-09
7.76938e-08
7.68517e-08
4.53202e-08
2.58717e-08
1.90479e-08
8.40177e-08
-1.869e-08
-5.94296e-08
-2.18298e-08
-6.25234e-07
-2.57219e-06
1.4612e-07
3.35555e-07
2.35029e-07
4.19595e-07
2.9264e-07
4.20187e-07
3.28726e-07
3.87292e-07
3.40329e-07
3.38471e-07
3.39993e-07
2.67139e-07
3.18186e-07
2.1688e-07
2.85599e-07
1.5553e-07
2.42198e-07
1.34961e-07
1.98964e-07
7.99286e-08
1.59066e-07
9.22921e-08
1.20247e-07
4.29222e-08
9.43133e-08
7.98403e-08
6.52155e-08
3.43066e-08
5.74137e-08
8.46535e-08
5.64695e-08
2.68159e-08
4.12598e-08
9.92274e-08
3.56248e-08
-5.37946e-08
2.20965e-08
-6.11706e-07
-2.5501e-06
1.40693e-07
1.94863e-07
2.4514e-07
3.15148e-07
3.21205e-07
3.44122e-07
3.48516e-07
3.59981e-07
3.49648e-07
3.37339e-07
3.21667e-07
2.9512e-07
2.88656e-07
2.49891e-07
2.51929e-07
1.92256e-07
2.23458e-07
1.63433e-07
1.91988e-07
1.11398e-07
1.73368e-07
1.10913e-07
1.5056e-07
6.57298e-08
1.41531e-07
8.88694e-08
1.27923e-07
4.79148e-08
1.06231e-07
1.06345e-07
6.51753e-08
6.78716e-08
5.59146e-08
1.08488e-07
1.21707e-10
1.99828e-09
-2.75082e-08
-5.84076e-07
-2.5776e-06
2.44751e-07
-4.98884e-08
2.32487e-07
3.27412e-07
2.21946e-07
3.54662e-07
2.32775e-07
3.49152e-07
2.49362e-07
3.20752e-07
2.67255e-07
2.77226e-07
2.57048e-07
2.60099e-07
2.35198e-07
2.14107e-07
2.01206e-07
1.97426e-07
1.6711e-07
1.45493e-07
1.32401e-07
1.45622e-07
9.60631e-08
1.02067e-07
6.8586e-08
1.16347e-07
1.25861e-08
1.03915e-07
3.70515e-08
8.18799e-08
-3.34336e-09
1.08266e-07
3.25876e-08
7.25571e-08
5.50598e-08
-2.04739e-08
1.97118e-08
-5.48728e-07
-2.55789e-06
3.34718e-07
-3.84607e-07
3.35748e-07
3.26382e-07
3.28545e-07
3.61866e-07
2.38632e-07
4.39064e-07
1.69345e-07
3.90039e-07
1.22526e-07
3.24046e-07
1.13428e-07
2.69196e-07
1.03481e-07
2.24054e-07
1.16338e-07
1.84568e-07
1.03096e-07
1.58736e-07
1.20841e-07
1.27877e-07
8.76004e-08
1.35308e-07
1.35072e-07
6.88747e-08
1.20743e-07
1.18244e-07
1.27636e-07
7.49872e-08
1.08798e-07
1.27104e-07
1.06387e-07
7.4968e-08
5.60232e-08
2.98903e-08
-2.40644e-08
-4.6864e-07
-2.58196e-06
2.42852e-07
-6.27458e-07
2.48227e-07
3.21007e-07
3.36013e-07
2.74079e-07
4.4385e-07
3.31227e-07
4.76193e-07
3.57697e-07
4.25142e-07
3.75097e-07
3.66187e-07
3.28151e-07
2.99109e-07
2.91132e-07
2.47605e-07
2.36072e-07
1.97247e-07
2.09094e-07
1.61668e-07
1.63456e-07
1.22101e-07
1.74874e-07
5.31914e-08
1.37784e-07
1.52833e-08
1.56152e-07
-7.95398e-08
1.6981e-07
-2.364e-07
2.83965e-07
-4.11538e-08
-1.20279e-07
6.45828e-08
-7.58462e-08
5.23717e-08
-4.56429e-07
-2.52959e-06
8.39408e-08
-7.11399e-07
1.1971e-07
2.85238e-07
-1.08258e-07
5.02048e-07
-1.60887e-07
3.83855e-07
-1.8346e-07
3.8027e-07
-1.29174e-07
3.2081e-07
-1.22533e-07
3.21511e-07
-9.34909e-08
2.62089e-07
-7.97232e-08
2.22304e-07
-6.29468e-08
1.92317e-07
-6.44578e-08
1.64967e-07
-8.88389e-08
1.99255e-07
-4.17557e-08
9.07013e-08
-1.52374e-07
2.6677e-07
6.18509e-08
-4.44145e-08
1.42601e-07
2.03214e-07
3.63602e-08
-1.40376e-08
-6.4543e-08
2.5057e-08
-4.58383e-08
-4.75134e-07
-2.57542e-06
4.69003e-08
-7.58299e-07
9.42311e-08
2.37907e-07
1.21721e-07
4.74558e-07
2.56499e-07
2.49078e-07
2.84793e-07
3.51977e-07
3.288e-07
2.76803e-07
4.08719e-07
2.41591e-07
4.26877e-07
2.43932e-07
4.67661e-07
1.8152e-07
4.37452e-07
2.22527e-07
4.5425e-07
1.48169e-07
3.74612e-07
2.78893e-07
4.25651e-07
3.96625e-08
3.03655e-07
3.88766e-07
1.7091e-07
8.83305e-08
1.16769e-07
2.57355e-07
7.73933e-08
2.53382e-08
5.59685e-08
4.64817e-08
7.24032e-08
-4.91569e-07
-2.50302e-06
-2.50827e-07
-5.07472e-07
-5.17358e-07
5.04437e-07
-3.28517e-07
2.85717e-07
-3.51352e-07
2.71912e-07
-3.1407e-07
3.14695e-07
-3.00104e-07
2.62836e-07
-2.89447e-07
2.30934e-07
-2.68201e-07
2.22687e-07
-3.00216e-07
2.13535e-07
-2.69042e-07
1.91353e-07
-2.92918e-07
1.72045e-07
-2.19385e-07
2.0536e-07
-2.73139e-07
9.34167e-08
-2.0354e-07
3.19166e-07
-1.23206e-07
7.9974e-09
-2.49338e-07
3.83486e-07
1.44814e-07
-3.68814e-07
1.43609e-07
4.76871e-08
3.38066e-08
-3.81766e-07
-2.46921e-06
-7.34073e-08
-4.34065e-07
3.02845e-07
1.28185e-07
2.73373e-07
3.15189e-07
2.91511e-07
2.53775e-07
3.52633e-07
2.53572e-07
3.92618e-07
2.22851e-07
4.34989e-07
1.88564e-07
4.89728e-07
1.67947e-07
5.08048e-07
1.95215e-07
5.43164e-07
1.56236e-07
5.40341e-07
1.74869e-07
5.78593e-07
1.67108e-07
6.02708e-07
6.93013e-08
5.20319e-07
4.01556e-07
6.25421e-07
-9.71047e-08
5.79995e-07
4.28912e-07
4.47884e-07
-2.36703e-07
1.97925e-07
2.97647e-07
2.3986e-07
-4.23702e-07
-2.22935e-06
-8.05067e-07
3.71003e-07
-9.24672e-07
2.4779e-07
-8.85748e-07
2.76265e-07
-7.88763e-07
1.5679e-07
-7.11579e-07
1.76388e-07
-6.32442e-07
1.43714e-07
-5.92847e-07
1.48969e-07
-5.52339e-07
1.27439e-07
-4.93576e-07
1.36452e-07
-4.5658e-07
1.19241e-07
-3.74933e-07
9.32213e-08
-3.18226e-07
1.10401e-07
-3.00573e-07
5.1648e-08
-9.42427e-08
1.95225e-07
-2.88961e-07
9.76136e-08
1.52662e-08
1.24685e-07
-1.83359e-07
-3.80779e-08
1.70331e-07
-5.60438e-08
6.72625e-07
-9.25995e-07
-1.55673e-06
3.71003e-07
6.18793e-07
8.95057e-07
1.05185e-06
1.22824e-06
1.37195e-06
1.52092e-06
1.64836e-06
1.78481e-06
1.90405e-06
1.99727e-06
2.10767e-06
2.15932e-06
2.35455e-06
2.45216e-06
2.57685e-06
2.53877e-06
2.48272e-06
1.55673e-06
)
;

boundaryField
{
    movingWall
    {
        type            calculated;
        value           uniform 0;
    }
    fixedWalls
    {
        type            calculated;
        value           uniform 0;
    }
    frontAndBack
    {
        type            empty;
        value           nonuniform 0();
    }
}


// ************************************************************************* //
