/*--------------------------------*- C++ -*----------------------------------*\
| =========                 |                                                 |
| \\      /  F ield         | OpenFOAM: The Open Source CFD Toolbox           |
|  \\    /   O peration     | Version:  5.x                                   |
|   \\  /    A nd           | Web:      www.OpenFOAM.org                      |
|    \\/     M anipulation  |                                                 |
\*---------------------------------------------------------------------------*/
FoamFile
{
    version     2.0;
    format      ascii;
    class       volVectorField;
    location    "7.7";
    object      U;
}
// * * * * * * * * * * * * * * * * * * * * * * * * * * * * * * * * * * * * * //

dimensions      [0 1 -1 0 0 0 0];

internalField   nonuniform List<vector> 
400
(
(-0.012171 0.00678873 0)
(-0.0257167 0.00965908 0)
(-0.0408234 0.0182841 0)
(-0.0590095 0.00520512 0)
(-0.0571117 -0.00330352 0)
(-0.0597945 0.00378796 0)
(-0.0615818 -0.00442914 0)
(-0.049755 -0.00623151 0)
(-0.0483925 0.00483267 0)
(-0.051698 0.00253034 0)
(-0.0467891 -0.00580234 0)
(-0.041518 -0.00434821 0)
(-0.042129 0.00013338 0)
(-0.0442759 -0.000288243 0)
(-0.0455567 -0.00227872 0)
(-0.0447606 -0.00295736 0)
(-0.0445882 -0.00308988 0)
(-0.0408565 -0.00603122 0)
(-0.0379801 -0.0100215 0)
(-0.00671612 -0.0179132 0)
(-0.0111389 0.0275121 0)
(-0.0293183 0.0179021 0)
(-0.0376645 0.012775 0)
(-0.0408164 0.00995311 0)
(-0.0441161 0.00499437 0)
(-0.0454064 -0.000183967 0)
(-0.0411594 -0.00520054 0)
(-0.0377947 -0.00671829 0)
(-0.0341658 -0.00554053 0)
(-0.0269252 -0.00455893 0)
(-0.0223172 -0.0032748 0)
(-0.0202318 -0.000903789 0)
(-0.0195454 0.00192953 0)
(-0.0168355 0.00238354 0)
(-0.0184572 0.00338823 0)
(-0.0171487 0.00117257 0)
(-0.0220032 0.000612301 0)
(-0.0178885 -0.00717292 0)
(-0.025281 -0.0167597 0)
(-0.00390642 -0.0378544 0)
(-0.00133206 0.04205 0)
(-0.00593445 0.0344058 0)
(-0.0111188 0.0256983 0)
(-0.014304 0.0152979 0)
(-0.0153187 0.00518906 0)
(-0.0153971 -0.00202101 0)
(-0.0144067 -0.00840221 0)
(-0.0131457 -0.011475 0)
(-0.0119222 -0.010644 0)
(-0.0095345 -0.00992373 0)
(-0.00897488 -0.0088757 0)
(-0.00695654 -0.0071725 0)
(-0.00742811 -0.00365668 0)
(-0.00302036 -0.00256621 0)
(-0.00570745 0.000496384 0)
(0.000363268 -0.00130853 0)
(-0.00490176 0.000696511 0)
(0.00222651 -0.00379884 0)
(-0.00761384 -0.0120384 0)
(-0.000370428 -0.0440473 0)
(0.00310774 0.0404071 0)
(0.00688901 0.0348651 0)
(0.00825556 0.0267239 0)
(0.00876667 0.0172754 0)
(0.00874564 0.00763971 0)
(0.00795707 -0.000554719 0)
(0.00648691 -0.00637626 0)
(0.00480379 -0.00913099 0)
(0.00235937 -0.00921885 0)
(0.00180047 -0.00820854 0)
(-0.000255991 -0.00641132 0)
(0.000184026 -0.00441994 0)
(-0.00220316 -0.00141072 0)
(-3.35633e-05 -0.000846034 0)
(-0.00255694 0.00114493 0)
(0.000943108 -0.00102813 0)
(-0.00289761 -0.000539337 0)
(0.00164527 -0.00598877 0)
(-0.0060364 -0.0131412 0)
(0.00192113 -0.0475363 0)
(0.0038703 0.0316413 0)
(0.0101712 0.0287197 0)
(0.014396 0.0229384 0)
(0.0167154 0.0154921 0)
(0.0170622 0.00752213 0)
(0.0159916 0.000526476 0)
(0.0134691 -0.00448696 0)
(0.0103101 -0.00706524 0)
(0.00646269 -0.00744685 0)
(0.00416229 -0.00672994 0)
(0.000981735 -0.00551198 0)
(0.000928389 -0.00439514 0)
(-0.00172191 -0.00241471 0)
(0.000887761 -0.00227237 0)
(-0.00188129 2.7781e-05 0)
(0.00228553 -0.00146524 0)
(-0.00200611 0.000459755 0)
(0.00195092 -0.00261861 0)
(-0.00329411 -0.0109954 0)
(0.00186762 -0.0489116 0)
(0.00323516 0.0239654 0)
(0.00904838 0.0224983 0)
(0.0134155 0.0185604 0)
(0.0161084 0.0133436 0)
(0.0167936 0.00766104 0)
(0.0159438 0.00269563 0)
(0.0136354 -0.00109173 0)
(0.0109746 -0.00335329 0)
(0.00762478 -0.00410399 0)
(0.0058114 -0.00411042 0)
(0.00277952 -0.00336019 0)
(0.00323847 -0.00278246 0)
(1.31864e-05 -0.00138176 0)
(0.00233538 -0.00121885 0)
(-0.00138101 0.000163245 0)
(0.00244493 -0.000912665 0)
(-0.00240158 0.000173823 0)
(0.00244097 -0.00433397 0)
(-0.00428781 -0.0130781 0)
(0.00381101 -0.0504632 0)
(0.0024242 0.0184335 0)
(0.0069684 0.017862 0)
(0.0106673 0.0152582 0)
(0.0131028 0.0115437 0)
(0.0139936 0.00757979 0)
(0.013641 0.0038084 0)
(0.0120391 0.000912981 0)
(0.0101144 -0.0011796 0)
(0.00758659 -0.00201215 0)
(0.00618568 -0.00264922 0)
(0.00347635 -0.00196875 0)
(0.00399291 -0.00230775 0)
(0.000753044 -0.000854371 0)
(0.00323829 -0.00164171 0)
(-0.000818659 0.000305849 0)
(0.00316189 -0.00113856 0)
(-0.00232571 0.000504127 0)
(0.00254967 -0.00197073 0)
(-0.00397725 -0.0115592 0)
(0.00335766 -0.0506689 0)
(0.00188208 0.0142512 0)
(0.00539565 0.0140057 0)
(0.0081176 0.0123441 0)
(0.0100581 0.0100839 0)
(0.0108584 0.0073836 0)
(0.0107796 0.00488032 0)
(0.00976787 0.00275654 0)
(0.0086158 0.00109428 0)
(0.00653241 0.000281257 0)
(0.00589732 -0.000442802 0)
(0.00309023 -0.000167176 0)
(0.00422541 -0.000495511 0)
(0.00040994 0.000328528 0)
(0.00349988 3.48709e-05 0)
(-0.00135937 0.00106738 0)
(0.00336619 0.000414708 0)
(-0.0025995 0.00128312 0)
(0.00320163 -0.0022671 0)
(-0.00368128 -0.0131875 0)
(0.00363264 -0.0505921 0)
(0.00148265 0.0110345 0)
(0.00427277 0.0117431 0)
(0.00672761 0.0108021 0)
(0.00833986 0.00901747 0)
(0.00909685 0.00708895 0)
(0.00918955 0.00479625 0)
(0.00846997 0.00311173 0)
(0.00770316 0.00147987 0)
(0.00619224 0.000891979 0)
(0.00576329 -0.000246737 0)
(0.00352428 0.000306979 0)
(0.00457244 -0.000916439 0)
(0.00133047 0.000520954 0)
(0.0042103 -0.00105307 0)
(-0.000554311 0.000884003 0)
(0.00404826 -0.000769321 0)
(-0.00255625 0.000870106 0)
(0.00354767 -0.00196488 0)
(-0.00455029 -0.0123714 0)
(0.00391952 -0.0518304 0)
(0.00157682 0.00816875 0)
(0.00405355 0.00842688 0)
(0.00523828 0.00818547 0)
(0.00630193 0.00774947 0)
(0.00672015 0.00682325 0)
(0.00692344 0.00604597 0)
(0.00656106 0.00494656 0)
(0.00635976 0.00374298 0)
(0.00485845 0.00305321 0)
(0.00516226 0.00192097 0)
(0.00242772 0.00201358 0)
(0.00434559 0.001154 0)
(4.83883e-05 0.00185231 0)
(0.00414137 0.00134711 0)
(-0.0019171 0.00242444 0)
(0.00460612 0.00199375 0)
(-0.00276725 0.00269432 0)
(0.00480085 -0.000162519 0)
(-0.00374657 -0.0120552 0)
(0.00487981 -0.0511775 0)
(0.00157293 0.00537797 0)
(0.00379379 0.00868488 0)
(0.00592788 0.00880357 0)
(0.00683147 0.00789807 0)
(0.00705561 0.00653989 0)
(0.00686628 0.00430834 0)
(0.00597878 0.0033717 0)
(0.00563577 0.00209085 0)
(0.00435503 0.00197487 0)
(0.00478606 0.000944226 0)
(0.00264835 0.00135451 0)
(0.00460565 0.000306555 0)
(0.00106094 0.00104167 0)
(0.005 -0.000214703 0)
(-0.000323402 0.000667964 0)
(0.0050321 -0.00112343 0)
(-0.00283785 0.00103534 0)
(0.00552033 -0.00218796 0)
(-0.00563066 -0.0132046 0)
(0.0048517 -0.0508384 0)
(0.00358099 0.00274662 0)
(0.00563625 0.00370786 0)
(0.00401015 0.00478997 0)
(0.00465272 0.00622273 0)
(0.0047873 0.0070788 0)
(0.00533354 0.00787742 0)
(0.00517524 0.00701464 0)
(0.00532641 0.00604539 0)
(0.0038465 0.00497314 0)
(0.00449359 0.00391905 0)
(0.00187574 0.00345384 0)
(0.00375363 0.00266103 0)
(-0.0002345 0.00286915 0)
(0.00329185 0.00244003 0)
(-0.00294177 0.00399217 0)
(0.00472495 0.00418877 0)
(-0.00496219 0.00357987 0)
(0.00660979 0.00230516 0)
(-0.00485655 -0.00906409 0)
(0.00587236 -0.0516123 0)
(0.00609151 -0.00468517 0)
(0.00658216 0.0100294 0)
(0.00735007 0.0095265 0)
(0.00574782 0.00814556 0)
(0.00376487 0.00569057 0)
(0.0028731 0.00277963 0)
(0.00214753 0.00292268 0)
(0.00233741 0.00199571 0)
(0.00187661 0.00244833 0)
(0.00283473 0.00142142 0)
(0.00119306 0.00193886 0)
(0.00380871 0.00099052 0)
(-0.00050176 0.00135002 0)
(0.00623571 0.00124262 0)
(-0.00182687 -0.00116854 0)
(0.0074342 -0.000327468 0)
(-0.00359781 -0.000928084 0)
(0.00849372 -0.0032778 0)
(-0.00682414 -0.0143264 0)
(0.00622093 -0.0513736 0)
(0.00182627 -0.0111085 0)
(0.00679909 0.00204979 0)
(0.00425476 0.00509642 0)
(0.00828785 0.00887441 0)
(0.00987799 0.00977825 0)
(0.00928651 0.0105161 0)
(0.0076417 0.00823791 0)
(0.00722809 0.00748963 0)
(0.00448506 0.00537783 0)
(0.00566121 0.00542736 0)
(0.00197848 0.00356455 0)
(0.0047226 0.0049299 0)
(-5.68606e-05 0.00173196 0)
(0.0023115 0.00401057 0)
(-0.00170729 0.00470008 0)
(-0.00126005 0.00596186 0)
(-0.00895677 0.00431118 0)
(0.00768486 0.00471585 0)
(-0.00551652 -0.0027492 0)
(0.00788468 -0.0506414 0)
(-0.00632071 -0.0133961 0)
(0.00919452 0.011336 0)
(-0.00375185 0.00572119 0)
(-0.00102245 0.00455828 0)
(-0.00526688 0.00437595 0)
(-0.00188497 0.00410615 0)
(-0.00310235 0.00469367 0)
(-0.00203325 0.00364222 0)
(-0.00152407 0.00368993 0)
(-0.00185272 0.00240008 0)
(-0.00045694 0.00263353 0)
(-0.00238291 0.0014743 0)
(-0.000827839 0.00345137 0)
(-0.00100502 0.00170501 0)
(-0.00540964 0.00123304 0)
(0.0082407 0.00442439 0)
(-0.00328924 -0.00985013 0)
(0.00521934 -0.00813637 0)
(-0.00848638 -0.017337 0)
(0.00717224 -0.0525669 0)
(-9.612e-05 -0.0172094 0)
(0.00225639 0.000496876 0)
(0.00159107 0.0138017 0)
(0.0030793 0.0104092 0)
(0.00672743 0.0105949 0)
(0.00528654 0.00907608 0)
(0.00728218 0.00789115 0)
(0.0094976 0.00712806 0)
(0.00715291 0.00528819 0)
(0.012013 0.00572525 0)
(0.00505505 0.00422621 0)
(0.0135592 0.00708553 0)
(0.00129454 0.000285879 0)
(0.0149759 0.00949051 0)
(-0.00218976 -0.00263438 0)
(0.00930674 0.00469221 0)
(-0.00498921 0.00959897 0)
(0.00830363 0.00933276 0)
(-0.00632441 0.000280277 0)
(0.00956941 -0.0489058 0)
(0.00206092 -0.0105482 0)
(-0.0133321 0.00928908 0)
(-0.00596355 0.00569167 0)
(-0.00670314 3.44043e-05 0)
(-0.00813681 0.00380604 0)
(-0.00371314 0.00211855 0)
(-0.00887409 0.00200261 0)
(-0.00227116 0.00262192 0)
(-0.00873219 0.00207423 0)
(-0.00326138 0.00275879 0)
(-0.0076664 0.00133167 0)
(-0.0041817 0.00338913 0)
(-0.00407855 0.0011934 0)
(-0.00777549 0.00519623 0)
(0.000598027 0.00598176 0)
(-0.00611223 0.00462892 0)
(-0.00462977 -0.00900275 0)
(0.0114109 -0.00774027 0)
(-0.00682039 -0.0222374 0)
(0.00870963 -0.0538956 0)
(-0.00937935 -0.0110802 0)
(0.00563574 0.00968094 0)
(0.00784456 0.00580656 0)
(0.0030509 0.0105547 0)
(0.00794908 0.00848193 0)
(0.00684719 0.0081834 0)
(0.00824026 0.00698013 0)
(0.00963673 0.00625163 0)
(0.00948012 0.00640897 0)
(0.0112029 0.00525375 0)
(0.0102943 0.00607253 0)
(0.0117201 0.005352 0)
(0.0110365 0.00291634 0)
(0.0131438 0.00835793 0)
(0.00831792 -0.00573381 0)
(0.015282 0.0106741 0)
(0.00882541 -0.00460326 0)
(0.00977831 0.010106 0)
(-0.00222726 0.00918408 0)
(0.0126208 -0.0456493 0)
(-0.0212716 -0.00493792 0)
(-0.0129608 -0.00389099 0)
(-0.0228182 0.00607618 0)
(-0.0116651 -0.000511866 0)
(-0.0197944 0.00191306 0)
(-0.0086551 0.000821151 0)
(-0.0168616 0.000888615 0)
(-0.00691277 0.000560371 0)
(-0.0154578 0.00128784 0)
(-0.00384809 0.000742905 0)
(-0.0152006 0.000331177 0)
(0.001268 0.00107897 0)
(-0.0152095 -0.000663835 0)
(0.00446186 0.00711678 0)
(-0.00881306 0.00149353 0)
(-0.00334622 0.00619276 0)
(0.00422055 -0.00457505 0)
(-0.0126349 -7.08382e-05 0)
(0.018656 -0.0290932 0)
(0.0116547 -0.049893 0)
(0.00105605 0.0181929 0)
(0.0145704 0.01358 0)
(0.0111083 0.00592046 0)
(0.0226779 0.00648764 0)
(0.0213662 0.0053896 0)
(0.0266338 0.00499925 0)
(0.0283004 0.00486048 0)
(0.0319998 0.00448223 0)
(0.0344822 0.00435952 0)
(0.0361439 0.0041931 0)
(0.0403773 0.00380366 0)
(0.0391299 0.00341854 0)
(0.0458128 0.00320733 0)
(0.042476 0.00119661 0)
(0.0493063 0.00289257 0)
(0.0486373 -0.000696721 0)
(0.0510859 0.00286228 0)
(0.0516839 -0.00127531 0)
(0.0425473 -0.00295773 0)
(0.0275286 -0.00374312 0)
)
;

boundaryField
{
    movingWall
    {
        type            fixedValue;
        value           uniform (1 0 0);
    }
    fixedWalls
    {
        type            noSlip;
    }
    frontAndBack
    {
        type            empty;
    }
}


// ************************************************************************* //
