/*--------------------------------*- C++ -*----------------------------------*\
| =========                 |                                                 |
| \\      /  F ield         | OpenFOAM: The Open Source CFD Toolbox           |
|  \\    /   O peration     | Version:  5.x                                   |
|   \\  /    A nd           | Web:      www.OpenFOAM.org                      |
|    \\/     M anipulation  |                                                 |
\*---------------------------------------------------------------------------*/
FoamFile
{
    version     2.0;
    format      ascii;
    class       volScalarField;
    location    "1";
    object      p;
}
// * * * * * * * * * * * * * * * * * * * * * * * * * * * * * * * * * * * * * //

dimensions      [0 2 -2 0 0 0 0];

internalField   nonuniform List<scalar> 
400
(
1.43896e-11
3.31468e-07
1.00265e-06
2.00064e-06
3.30804e-06
4.90118e-06
6.75019e-06
8.81904e-06
1.10656e-05
1.34418e-05
1.58943e-05
1.83645e-05
2.07901e-05
2.31064e-05
2.52478e-05
2.71502e-05
2.87533e-05
3.00039e-05
3.08591e-05
3.12861e-05
-3.39788e-07
-2.5825e-09
6.80448e-07
1.69634e-06
3.02771e-06
4.65083e-06
6.53573e-06
8.64615e-06
1.09396e-05
1.33676e-05
1.58759e-05
1.84055e-05
2.08922e-05
2.32699e-05
2.54709e-05
2.74287e-05
2.90806e-05
3.03708e-05
3.12537e-05
3.16948e-05
-1.04299e-06
-6.93889e-07
1.3612e-08
1.06649e-06
2.44735e-06
4.13236e-06
6.0913e-06
8.28746e-06
1.06777e-05
1.32125e-05
1.58363e-05
1.84881e-05
2.11013e-05
2.36061e-05
2.5931e-05
2.80045e-05
2.97585e-05
3.11315e-05
3.20728e-05
3.25437e-05
-2.12047e-06
-1.75343e-06
-1.00898e-06
9.97879e-08
1.55554e-06
3.33431e-06
5.40556e-06
7.732e-06
1.02695e-05
1.29671e-05
1.57674e-05
1.86068e-05
2.14145e-05
2.4116e-05
2.66333e-05
2.88875e-05
3.08018e-05
3.23056e-05
3.33396e-05
3.38577e-05
-3.5932e-06
-3.20226e-06
-2.40846e-06
-1.2249e-06
3.31248e-07
2.23598e-06
4.45844e-06
6.96065e-06
9.69732e-06
1.26159e-05
1.56564e-05
1.87525e-05
2.18279e-05
2.48017e-05
2.75876e-05
3.00959e-05
3.22375e-05
3.39283e-05
3.50957e-05
3.56823e-05
-5.4891e-06
-5.06846e-06
-4.21311e-06
-2.93603e-06
-1.25395e-06
8.09254e-07
3.22249e-06
5.94709e-06
8.9366e-06
1.21366e-05
1.54845e-05
1.89111e-05
2.23339e-05
2.56641e-05
2.88048e-05
3.16528e-05
3.41018e-05
3.60482e-05
3.74001e-05
3.8082e-05
-7.8435e-06
-7.38766e-06
-6.459e-06
-5.07005e-06
-3.23665e-06
-9.82257e-07
1.662e-06
4.65684e-06
7.95466e-06
1.14993e-05
1.52255e-05
1.90618e-05
2.29192e-05
2.67001e-05
3.02956e-05
3.35852e-05
3.64401e-05
3.87294e-05
4.03323e-05
4.11457e-05
-1.06993e-05
-1.02034e-05
-9.19047e-06
-7.67206e-06
-5.66238e-06
-3.18398e-06
-2.67827e-07
3.04629e-06
6.70975e-06
1.06648e-05
1.48439e-05
1.91744e-05
2.35616e-05
2.78999e-05
3.20669e-05
3.59217e-05
3.93068e-05
4.20536e-05
4.39982e-05
4.49943e-05
-1.41071e-05
-1.35672e-05
-1.24608e-05
-1.07967e-05
-8.58657e-06
-5.85139e-06
-2.62184e-06
1.06173e-06
5.14976e-06
9.58357e-06
1.4294e-05
1.92069e-05
2.42263e-05
2.92413e-05
3.41161e-05
3.86877e-05
4.27626e-05
4.61215e-05
4.85359e-05
4.97928e-05
-1.81253e-05
-1.75397e-05
-1.63331e-05
-1.45096e-05
-1.2076e-05
-9.05128e-06
-5.46598e-06
-1.36159e-06
3.2111e-06
8.1934e-06
1.35198e-05
1.91008e-05
2.48599e-05
3.0682e-05
3.64227e-05
4.18965e-05
4.68688e-05
5.10538e-05
5.41249e-05
5.57691e-05
-2.28199e-05
-2.21904e-05
-2.08826e-05
-1.88894e-05
-1.6211e-05
-1.28634e-05
-8.87825e-06
-4.29988e-06
8.18111e-07
6.41547e-06
1.24262e-05
1.8775e-05
2.53846e-05
3.21509e-05
3.89337e-05
4.55343e-05
5.16745e-05
5.69871e-05
6.09938e-05
6.32479e-05
-2.82656e-05
-2.76003e-05
-2.61996e-05
-2.40323e-05
-2.10889e-05
-1.73827e-05
-1.29494e-05
-7.83988e-06
-2.11361e-06
4.16641e-06
1.09364e-05
1.81336e-05
2.56938e-05
3.3537e-05
4.15462e-05
4.95331e-05
5.71897e-05
6.40606e-05
6.9424e-05
7.27069e-05
-3.4525e-05
-3.38589e-05
-3.23952e-05
-3.00579e-05
-2.68297e-05
-2.27224e-05
-1.77829e-05
-1.20763e-05
-5.6745e-06
1.35414e-06
8.94897e-06
1.70591e-05
2.5645e-05
3.46739e-05
4.40828e-05
5.37322e-05
6.33307e-05
7.2378e-05
7.97315e-05
8.4874e-05
-4.1763e-05
-4.1101e-05
-3.96266e-05
-3.71245e-05
-3.35856e-05
-2.9017e-05
-2.34924e-05
-1.71059e-05
-9.9532e-06
-2.11334e-06
6.35727e-06
1.54215e-05
2.5059e-05
3.53259e-05
4.62562e-05
5.7822e-05
6.98261e-05
8.19171e-05
9.21827e-05
0.000100886
-4.93343e-05
-4.93652e-05
-4.80597e-05
-4.54438e-05
-4.15549e-05
-3.64267e-05
-3.01992e-05
-2.30206e-05
-1.50251e-05
-6.31146e-06
3.06877e-06
1.30999e-05
2.37258e-05
3.51782e-05
4.76297e-05
6.12552e-05
7.60737e-05
9.23814e-05
0.000106766
0.000122508
-6.02512e-05
-5.93613e-05
-5.82586e-05
-5.53421e-05
-5.10018e-05
-4.51382e-05
-3.80255e-05
-2.98932e-05
-2.09354e-05
-1.12824e-05
-9.74207e-07
1.01437e-05
2.14573e-05
3.39042e-05
4.7726e-05
6.34566e-05
8.13958e-05
0.000103375
0.000122665
0.000151842
-6.55597e-05
-7.16721e-05
-6.99149e-05
-6.74199e-05
-6.23803e-05
-5.54399e-05
-4.71168e-05
-3.77765e-05
-2.76869e-05
-1.70431e-05
-5.98874e-06
5.29782e-06
1.74982e-05
3.04161e-05
4.42955e-05
6.0252e-05
7.79481e-05
0.000108118
0.000127874
0.000189971
-8.35746e-05
-7.62178e-05
-8.3728e-05
-7.92328e-05
-7.43723e-05
-6.65911e-05
-5.70746e-05
-4.63789e-05
-3.49877e-05
-2.31827e-05
-1.10871e-05
1.41533e-06
1.47763e-05
2.96938e-05
4.5397e-05
6.46752e-05
8.63631e-05
0.000124258
0.000148196
0.000233822
-8.34066e-05
-0.000128878
-0.000109917
-0.00010904
-9.8277e-05
-8.54167e-05
-7.16204e-05
-5.78367e-05
-4.42055e-05
-3.08061e-05
-1.78039e-05
-5.20997e-06
6.25353e-06
1.64277e-05
2.40903e-05
3.90186e-05
3.20435e-05
8.83553e-05
5.51808e-05
0.00025053
-0.000169496
-0.000109078
-0.000112292
-0.000113246
-0.000103166
-9.03091e-05
-7.68745e-05
-6.27654e-05
-4.85108e-05
-3.45079e-05
-2.10946e-05
-7.77166e-06
4.24617e-06
1.83499e-05
2.75174e-05
4.81959e-05
6.40847e-05
0.000139924
0.000264777
0.000573082
)
;

boundaryField
{
    movingWall
    {
        type            zeroGradient;
    }
    fixedWalls
    {
        type            zeroGradient;
    }
    frontAndBack
    {
        type            empty;
    }
}


// ************************************************************************* //
