/*--------------------------------*- C++ -*----------------------------------*\
| =========                 |                                                 |
| \\      /  F ield         | OpenFOAM: The Open Source CFD Toolbox           |
|  \\    /   O peration     | Version:  5.x                                   |
|   \\  /    A nd           | Web:      www.OpenFOAM.org                      |
|    \\/     M anipulation  |                                                 |
\*---------------------------------------------------------------------------*/
FoamFile
{
    version     2.0;
    format      ascii;
    class       surfaceScalarField;
    location    "1";
    object      phi;
}
// * * * * * * * * * * * * * * * * * * * * * * * * * * * * * * * * * * * * * //

dimensions      [0 3 -1 0 0 0 0];

internalField   nonuniform List<scalar> 
760
(
-3.84656e-09
3.84656e-09
-7.66231e-09
3.81575e-09
-1.12968e-08
3.63446e-09
-1.46646e-08
3.36784e-09
-1.76876e-08
3.02294e-09
-2.02957e-08
2.60809e-09
-2.24282e-08
2.13256e-09
-2.40344e-08
1.60621e-09
-2.50737e-08
1.03932e-09
-2.55164e-08
4.42643e-10
-2.5343e-08
-1.73389e-10
-2.45478e-08
-7.95247e-10
-2.31373e-08
-1.41044e-09
-2.11331e-08
-2.0042e-09
-1.85726e-08
-2.56048e-09
-1.55106e-08
-3.06207e-09
-1.20193e-08
-3.4913e-09
-8.18818e-09
-3.83109e-09
-4.1221e-09
-4.06608e-09
-4.1221e-09
-3.99798e-09
7.84454e-09
-7.96308e-09
7.78085e-09
-1.1739e-08
7.41043e-09
-1.52372e-08
6.866e-09
-1.83766e-08
6.16231e-09
-2.10851e-08
5.31663e-09
-2.33006e-08
4.34803e-09
-2.49709e-08
3.27659e-09
-2.60547e-08
2.12308e-09
-2.65212e-08
9.09089e-10
-2.63501e-08
-3.44408e-10
-2.5534e-08
-1.61137e-09
-2.4079e-08
-2.8655e-09
-2.20054e-08
-4.07775e-09
-1.93505e-08
-5.21542e-09
-1.61693e-08
-6.24321e-09
-1.25362e-08
-7.12445e-09
-8.54391e-09
-7.82337e-09
-4.30253e-09
-8.30746e-09
-8.42463e-09
-4.18372e-09
1.20283e-08
-8.33229e-09
1.19294e-08
-1.22815e-08
1.13596e-08
-1.59387e-08
1.05232e-08
-1.92202e-08
9.44374e-09
-2.20518e-08
8.14832e-09
-2.43704e-08
6.66658e-09
-2.6123e-08
5.02923e-09
-2.72675e-08
3.26754e-09
-2.7772e-08
1.4136e-09
-2.76146e-08
-5.01791e-10
-2.67853e-08
-2.4407e-09
-2.52874e-08
-4.36341e-09
-2.31384e-08
-6.22675e-09
-2.03729e-08
-7.9809e-09
-1.7045e-08
-9.57112e-09
-1.32299e-08
-1.09395e-08
-9.02482e-09
-1.20285e-08
-4.54735e-09
-1.27849e-08
-1.2972e-08
-4.46883e-09
1.64971e-08
-8.89856e-09
1.63592e-08
-1.31126e-08
1.55736e-08
-1.70122e-08
1.44229e-08
-2.05094e-08
1.29409e-08
-2.35275e-08
1.11665e-08
-2.6002e-08
9.14107e-09
-2.78794e-08
6.90656e-09
-2.91165e-08
4.50471e-09
-2.96804e-08
1.97751e-09
-2.95468e-08
-6.35385e-10
-2.87011e-08
-3.28641e-09
-2.71425e-08
-5.92208e-09
-2.4883e-08
-8.48618e-09
-2.19527e-08
-1.09112e-08
-1.84027e-08
-1.31211e-08
-1.43092e-08
-1.5033e-08
-9.77503e-09
-1.65626e-08
-4.93001e-09
-1.76299e-08
-1.7902e-08
-4.86201e-09
2.13591e-08
-9.67859e-09
2.11757e-08
-1.42554e-08
2.01505e-08
-1.84854e-08
1.86528e-08
-2.22749e-08
1.67304e-08
-2.55446e-08
1.44362e-08
-2.82289e-08
1.18254e-08
-3.02743e-08
8.95197e-09
-3.16377e-08
5.86808e-09
-3.22848e-08
2.62459e-09
-3.21887e-08
-7.31481e-10
-3.1328e-08
-4.1471e-09
-2.96955e-08
-7.55455e-09
-2.72949e-08
-1.08868e-08
-2.41476e-08
-1.40585e-08
-2.02989e-08
-1.69698e-08
-1.58238e-08
-1.95081e-08
-1.08324e-08
-2.15541e-08
-5.47092e-09
-2.29914e-08
-2.33729e-08
-5.37548e-09
2.67346e-08
-1.06955e-08
2.64958e-08
-1.57417e-08
2.51966e-08
-2.03955e-08
2.33067e-08
-2.45571e-08
2.0892e-08
-2.81447e-08
1.80238e-08
-3.10929e-08
1.47737e-08
-3.33502e-08
1.12092e-08
-3.48746e-08
7.39253e-09
-3.56317e-08
3.38171e-09
-3.55923e-08
-7.7095e-10
-3.47252e-08
-5.01418e-09
-3.30141e-08
-9.26568e-09
-3.04494e-08
-1.34515e-08
-2.70384e-08
-1.74695e-08
-2.28145e-08
-2.11937e-08
-1.78477e-08
-2.4475e-08
-1.22538e-08
-2.71479e-08
-6.2014e-09
-2.90438e-08
-2.95743e-08
-6.02672e-09
3.27613e-08
-1.19821e-08
3.24512e-08
-1.76151e-08
3.08296e-08
-2.27933e-08
2.84849e-08
-2.74095e-08
2.55081e-08
-3.13812e-08
2.19954e-08
-3.46463e-08
1.80388e-08
-3.71581e-08
1.3721e-08
-3.88791e-08
9.11351e-09
-3.97765e-08
4.2791e-09
-3.982e-08
-7.27496e-10
-3.89656e-08
-5.86851e-09
-3.71839e-08
-1.10475e-08
-3.44456e-08
-1.61897e-08
-3.07351e-08
-2.118e-08
-2.60638e-08
-2.5865e-08
-2.04876e-08
-3.00512e-08
-1.41244e-08
-3.35111e-08
-7.16928e-09
-3.59989e-08
-3.67436e-08
-6.84076e-09
3.96021e-08
-1.35842e-08
3.91946e-08
-1.99362e-08
3.71817e-08
-2.57465e-08
3.42951e-08
-3.09014e-08
3.06631e-08
-3.53211e-08
2.64151e-08
-3.89518e-08
2.16696e-08
-4.17571e-08
1.65263e-08
-4.37088e-08
1.10652e-08
-4.47795e-08
5.34984e-09
-4.49411e-08
-5.6591e-10
-4.41335e-08
-6.67614e-09
-4.23088e-08
-1.28721e-08
-3.94097e-08
-1.90889e-08
-3.5384e-08
-2.52057e-08
-3.0205e-08
-3.1044e-08
-2.38978e-08
-3.63584e-08
-1.65711e-08
-4.08378e-08
-8.44876e-09
-4.41213e-08
-4.51924e-08
-7.85391e-09
4.7456e-08
-1.55668e-08
4.69075e-08
-2.27881e-08
4.4403e-08
-2.93458e-08
4.08528e-08
-3.51222e-08
3.64396e-08
-4.00466e-08
3.13395e-08
-4.40819e-08
2.57048e-08
-4.72109e-08
1.96553e-08
-4.94225e-08
1.32769e-08
-5.0701e-08
6.62824e-09
-5.10259e-08
-2.4101e-10
-5.03187e-08
-7.38332e-09
-4.85084e-08
-1.46824e-08
-4.54964e-08
-2.21009e-08
-4.1176e-08
-2.95262e-08
-3.54561e-08
-3.67639e-08
-2.83018e-08
-4.35127e-08
-1.97862e-08
-4.93534e-08
-1.01587e-08
-5.37488e-08
-5.5351e-08
-9.12037e-09
5.65763e-08
-1.80231e-08
5.58103e-08
-2.62869e-08
5.26667e-08
-3.37134e-08
4.82792e-08
-4.01873e-08
4.29135e-08
-4.56579e-08
3.68102e-08
-5.01186e-08
3.01655e-08
-5.35849e-08
2.31215e-08
-5.60748e-08
1.57668e-08
-5.7592e-08
8.14549e-09
-5.81367e-08
3.03675e-10
-5.76079e-08
-7.91219e-09
-5.59114e-08
-1.63789e-08
-5.28903e-08
-2.51219e-08
-4.83566e-08
-3.40599e-08
-4.21173e-08
-4.30031e-08
-3.40267e-08
-5.16033e-08
-2.40676e-08
-5.93125e-08
-1.2498e-08
-6.53184e-08
-6.7849e-08
-1.07235e-08
6.72999e-08
-2.10897e-08
6.61765e-08
-3.05972e-08
6.21742e-08
-3.90156e-08
5.66977e-08
-4.6246e-08
5.01438e-08
-5.22765e-08
4.28407e-08
-5.71518e-08
3.50409e-08
-6.09403e-08
2.691e-08
-6.37074e-08
1.85339e-08
-6.54945e-08
9.9326e-09
-6.63023e-08
1.1115e-09
-6.60672e-08
-8.14726e-09
-6.46406e-08
-1.78055e-08
-6.17981e-08
-2.79645e-08
-5.72349e-08
-3.86231e-08
-5.05999e-08
-4.96381e-08
-4.15564e-08
-6.06468e-08
-2.98873e-08
-7.09816e-08
-1.5816e-08
-7.93896e-08
-8.36651e-08
-1.27995e-08
8.00994e-08
-2.49713e-08
7.83482e-08
-3.59565e-08
7.31594e-08
-4.54823e-08
6.62235e-08
-5.34944e-08
5.81559e-08
-6.00507e-08
4.9397e-08
-6.52774e-08
4.02676e-08
-6.9324e-08
3.09565e-08
-7.23287e-08
2.15386e-08
-7.43873e-08
1.19912e-08
-7.55324e-08
2.25662e-09
-7.57263e-08
-7.95335e-09
-7.47904e-08
-1.87414e-08
-7.24263e-08
-3.03286e-08
-6.81816e-08
-4.28679e-08
-6.14621e-08
-5.63576e-08
-5.16134e-08
-7.04955e-08
-3.80105e-08
-8.45846e-08
-2.07561e-08
-9.66439e-08
-1.04421e-07
-1.55478e-08
9.56472e-08
-2.99703e-08
9.27707e-08
-4.27114e-08
8.59005e-08
-5.34344e-08
7.69464e-08
-6.21931e-08
6.69146e-08
-6.91607e-08
5.63646e-08
-7.4591e-08
4.56979e-08
-7.87579e-08
3.51234e-08
-8.19044e-08
2.46851e-08
-8.42053e-08
1.42921e-08
-8.57479e-08
3.79916e-09
-8.65343e-08
-7.16693e-09
-8.63852e-08
-1.88904e-08
-8.49412e-08
-3.17725e-08
-8.15941e-08
-4.6215e-08
-7.54336e-08
-6.25181e-08
-6.52774e-08
-8.06517e-08
-4.96996e-08
-1.00162e-07
-2.85579e-08
-1.17786e-07
-1.32979e-07
-1.95205e-08
1.15168e-07
-3.66203e-08
1.0987e-07
-5.13979e-08
1.00678e-07
-6.33294e-08
8.88779e-08
-7.26854e-08
7.62706e-08
-7.98146e-08
6.34939e-08
-8.5179e-08
5.10623e-08
-8.92262e-08
3.91706e-08
-9.23359e-08
2.77948e-08
-9.47949e-08
1.67511e-08
-9.67582e-08
5.76248e-09
-9.83089e-08
-5.61631e-09
-9.93131e-08
-1.78862e-08
-9.93951e-08
-3.16906e-08
-9.78289e-08
-4.77812e-08
-9.3372e-08
-6.6975e-08
-8.41366e-08
-8.98871e-08
-6.70277e-08
-1.17271e-07
-4.17101e-08
-1.43103e-07
-1.74689e-07
-2.39649e-08
1.39133e-07
-4.52465e-08
1.31152e-07
-6.26948e-08
1.18126e-07
-7.57877e-08
1.01971e-07
-8.54015e-08
8.58844e-08
-9.22445e-08
7.03368e-08
-9.71037e-08
5.59215e-08
-1.00653e-07
4.27199e-08
-1.03436e-07
3.0578e-08
-1.05869e-07
1.91841e-08
-1.08226e-07
8.11956e-09
-1.1067e-07
-3.17234e-09
-1.13224e-07
-1.5333e-08
-1.15583e-07
-2.93306e-08
-1.17052e-07
-4.6313e-08
-1.16147e-07
-6.78795e-08
-1.10398e-07
-9.56366e-08
-9.31487e-08
-1.3452e-07
-6.53344e-08
-1.70917e-07
-2.40024e-07
-3.73698e-08
1.76502e-07
-5.91401e-08
1.52922e-07
-7.83599e-08
1.37346e-07
-9.1782e-08
1.15393e-07
-1.00891e-07
9.49934e-08
-1.06691e-07
7.61368e-08
-1.10368e-07
5.95987e-08
-1.12867e-07
4.52186e-08
-1.14909e-07
3.26201e-08
-1.17042e-07
2.13174e-08
-1.19686e-07
1.0763e-08
-1.22966e-07
1.08287e-10
-1.27428e-07
-1.08715e-08
-1.32857e-07
-2.39012e-08
-1.38983e-07
-4.01872e-08
-1.44203e-07
-6.26597e-08
-1.46566e-07
-9.32735e-08
-1.3338e-07
-1.47706e-07
-1.09826e-07
-1.94471e-07
-3.4985e-07
-3.3038e-08
2.0954e-07
-7.20863e-08
1.91971e-07
-9.79039e-08
1.63164e-07
-1.12159e-07
1.29648e-07
-1.19816e-07
1.02651e-07
-1.23376e-07
7.96975e-08
-1.24878e-07
6.11e-08
-1.25587e-07
4.59276e-08
-1.26339e-07
3.33724e-08
-1.27707e-07
2.26852e-08
-1.30161e-07
1.32173e-08
-1.34436e-07
4.3832e-09
-1.40625e-07
-4.68298e-09
-1.4903e-07
-1.5496e-08
-1.60647e-07
-2.85701e-08
-1.73742e-07
-4.95643e-08
-1.93744e-07
-7.32721e-08
-1.92632e-07
-1.48818e-07
-1.89449e-07
-1.97654e-07
-5.39299e-07
-7.46866e-08
2.84227e-07
-1.00559e-07
2.17843e-07
-1.21754e-07
1.84359e-07
-1.35973e-07
1.43866e-07
-1.40734e-07
1.07411e-07
-1.41254e-07
8.02173e-08
-1.39894e-07
5.97404e-08
-1.38223e-07
4.42562e-08
-1.37227e-07
3.23769e-08
-1.37616e-07
2.30739e-08
-1.40052e-07
1.56534e-08
-1.45097e-07
9.42781e-09
-1.5409e-07
4.31049e-09
-1.68029e-07
-1.55742e-09
-1.9095e-07
-5.64849e-09
-2.1946e-07
-2.10547e-08
-2.58243e-07
-3.44895e-08
-2.7124e-07
-1.35821e-07
-2.32793e-07
-2.36101e-07
-7.72092e-07
-2.87811e-07
5.72038e-07
-2.79795e-07
2.09827e-07
-2.67142e-07
1.71706e-07
-2.40594e-07
1.17319e-07
-2.13765e-07
8.05821e-08
-1.90267e-07
5.67195e-08
-1.71924e-07
4.13973e-08
-1.58211e-07
3.05434e-08
-1.48347e-07
2.25131e-08
-1.41758e-07
1.64843e-08
-1.38108e-07
1.20032e-08
-1.36578e-07
7.89806e-09
-1.37658e-07
5.39044e-09
-1.39435e-07
2.2012e-10
-1.4427e-07
-8.14165e-10
-1.43067e-07
-2.22575e-08
-1.32764e-07
-4.47924e-08
-1.2598e-07
-1.42605e-07
-4.55983e-08
-3.16482e-07
-8.1769e-07
5.72038e-07
7.81865e-07
9.53571e-07
1.07089e-06
1.15147e-06
1.20819e-06
1.24959e-06
1.28013e-06
1.30265e-06
1.31913e-06
1.33113e-06
1.33903e-06
1.34442e-06
1.34464e-06
1.34383e-06
1.32157e-06
1.27678e-06
1.13417e-06
8.1769e-07
)
;

boundaryField
{
    movingWall
    {
        type            calculated;
        value           uniform 0;
    }
    fixedWalls
    {
        type            calculated;
        value           uniform 0;
    }
    frontAndBack
    {
        type            empty;
        value           nonuniform 0();
    }
}


// ************************************************************************* //
