/*--------------------------------*- C++ -*----------------------------------*\
| =========                 |                                                 |
| \\      /  F ield         | OpenFOAM: The Open Source CFD Toolbox           |
|  \\    /   O peration     | Version:  5.x                                   |
|   \\  /    A nd           | Web:      www.OpenFOAM.org                      |
|    \\/     M anipulation  |                                                 |
\*---------------------------------------------------------------------------*/
FoamFile
{
    version     2.0;
    format      ascii;
    class       volVectorField;
    location    "1";
    object      U;
}
// * * * * * * * * * * * * * * * * * * * * * * * * * * * * * * * * * * * * * //

dimensions      [0 1 -1 0 0 0 0];

internalField   nonuniform List<vector> 
400
(
(-3.85022e-05 3.82993e-05 0)
(-0.000115307 3.79931e-05 0)
(-0.000190029 3.61906e-05 0)
(-0.000260199 3.35388e-05 0)
(-0.00032424 3.01072e-05 0)
(-0.000380662 2.5978e-05 0)
(-0.000428159 2.1243e-05 0)
(-0.000465616 1.60003e-05 0)
(-0.000492121 1.03525e-05 0)
(-0.000506972 4.40662e-06 0)
(-0.000509676 -1.72501e-06 0)
(-0.00049998 -7.92346e-06 0)
(-0.000477893 -1.40509e-05 0)
(-0.000443693 -1.99624e-05 0)
(-0.000397965 -2.54979e-05 0)
(-0.000341631 -3.04866e-05 0)
(-0.000275958 -3.47531e-05 0)
(-0.000202574 -3.81288e-05 0)
(-0.000123351 -4.04623e-05 0)
(-4.12605e-05 -4.1018e-05 0)
(-4.00194e-05 0.000116586 0)
(-0.000119843 0.000115644 0)
(-0.000197486 0.000110149 0)
(-0.000270381 0.000102068 0)
(-0.000336896 9.16171e-05 0)
(-0.00039549 7.90498e-05 0)
(-0.000444823 6.46473e-05 0)
(-0.000483753 4.87082e-05 0)
(-0.000511345 3.15424e-05 0)
(-0.000526879 1.34713e-05 0)
(-0.000529846 -5.16802e-06 0)
(-0.000519968 -2.40139e-05 0)
(-0.000497227 -4.26613e-05 0)
(-0.000461888 -6.06696e-05 0)
(-0.000414523 -7.7553e-05 0)
(-0.00035605 -9.27884e-05 0)
(-0.000287763 -0.000105836 0)
(-0.000211339 -0.000116173 0)
(-0.000128733 -0.000123326 0)
(-4.30691e-05 -0.000125047 0)
(-4.18804e-05 0.000198314 0)
(-0.000125409 0.000196693 0)
(-0.000206632 0.000187322 0)
(-0.000282857 0.000173556 0)
(-0.000352387 0.000155771 0)
(-0.000413634 0.00013441 0)
(-0.000465228 0.000109956 0)
(-0.00050601 8.29147e-05 0)
(-0.000535031 5.38064e-05 0)
(-0.000551554 2.31643e-05 0)
(-0.000555041 -8.45575e-06 0)
(-0.000545171 -4.04569e-05 0)
(-0.000521877 -7.21716e-05 0)
(-0.000485361 -0.000102862 0)
(-0.000436141 -0.000131705 0)
(-0.000375097 -0.000157804 0)
(-0.00030352 -0.000180217 0)
(-0.000223139 -0.000198021 0)
(-0.000136021 -0.000210368 0)
(-4.55237e-05 -0.000213393 0)
(-4.47373e-05 0.000284644 0)
(-0.000133949 0.000282286 0)
(-0.000220654 0.000268782 0)
(-0.000301961 0.000248975 0)
(-0.000376075 0.000223433 0)
(-0.000441345 0.000192809 0)
(-0.000496361 0.000157809 0)
(-0.000539946 0.000119157 0)
(-0.000571139 7.75816e-05 0)
(-0.000589183 3.38192e-05 0)
(-0.000593507 -1.13714e-05 0)
(-0.00058372 -5.71833e-05 0)
(-0.000559665 -0.000102694 0)
(-0.00052145 -0.000146875 0)
(-0.000469488 -0.000188556 0)
(-0.000404581 -0.000226434 0)
(-0.000327994 -0.000259108 0)
(-0.000241524 -0.000285174 0)
(-0.000147402 -0.000303317 0)
(-4.93615e-05 -0.000307878 0)
(-4.86786e-05 0.000377743 0)
(-0.000145722 0.000374546 0)
(-0.000239956 0.000356512 0)
(-0.000328207 0.000330122 0)
(-0.000408553 0.000296181 0)
(-0.000479258 0.000255598 0)
(-0.000538881 0.00020933 0)
(-0.000586238 0.000158335 0)
(-0.000620369 0.000103551 0)
(-0.000640507 4.58994e-05 0)
(-0.000646044 -1.36868e-05 0)
(-0.000636494 -7.42264e-05 0)
(-0.000611569 -0.00013457 0)
(-0.000571225 -0.000193414 0)
(-0.000515701 -0.000249234 0)
(-0.00044565 -0.000300274 0)
(-0.000362261 -0.000344591 0)
(-0.000267385 -0.000380167 0)
(-0.000163468 -0.000405068 0)
(-5.47897e-05 -0.000411552 0)
(-5.38283e-05 0.000479875 0)
(-0.000161089 0.000475683 0)
(-0.000265094 0.000452546 0)
(-0.000362292 0.000418805 0)
(-0.0004506 0.000375576 0)
(-0.000528196 0.000324089 0)
(-0.000593624 0.0002656 0)
(-0.000645725 0.000201324 0)
(-0.000683576 0.0001324 0)
(-0.000706422 5.99104e-05 0)
(-0.000713634 -1.50823e-05 0)
(-0.000704604 -9.14874e-05 0)
(-0.000678853 -0.000167981 0)
(-0.000636116 -0.00024302 0)
(-0.000576349 -0.00031473 0)
(-0.000499938 -0.000380854 0)
(-0.000407889 -0.000438787 0)
(-0.000302052 -0.000485712 0)
(-0.000185121 -0.000518821 0)
(-6.21274e-05 -0.000527851 0)
(-6.03652e-05 0.000593606 0)
(-0.000180562 0.00058817 0)
(-0.000296852 0.000559121 0)
(-0.000405177 0.000516967 0)
(-0.00050327 0.000463248 0)
(-0.000589235 0.000399617 0)
(-0.000661648 0.0003277 0)
(-0.000719439 0.000248994 0)
(-0.000761783 0.000164837 0)
(-0.000787991 7.64252e-05 0)
(-0.000797443 -1.5118e-05 0)
(-0.000789394 -0.000108694 0)
(-0.000763102 -0.000202898 0)
(-0.000717975 -0.000296023 0)
(-0.000653536 -0.000385878 0)
(-0.00056971 -0.000469667 0)
(-0.000467122 -0.000543976 0)
(-0.000347488 -0.000604913 0)
(-0.000213723 -0.000648405 0)
(-7.18655e-05 -0.000660994 0)
(-6.85469e-05 0.000721916 0)
(-0.000204872 0.000714836 0)
(-0.000336317 0.000678728 0)
(-0.000458166 0.000626692 0)
(-0.00056795 0.000560873 0)
(-0.000663746 0.000483499 0)
(-0.00074425 0.000396657 0)
(-0.00080859 0.000302173 0)
(-0.000856146 0.000201565 0)
(-0.000886379 9.60809e-05 0)
(-0.000898754 -1.32019e-05 0)
(-0.000892385 -0.000125325 0)
(-0.000866184 -0.000238965 0)
(-0.000819097 -0.000352399 0)
(-0.000749996 -0.000463209 0)
(-0.00065804 -0.000568056 0)
(-0.000543139 -0.000662555 0)
(-0.000406573 -0.000741365 0)
(-0.000251354 -0.000798529 0)
(-8.47747e-05 -0.000816381 0)
(-7.87524e-05 0.000868387 0)
(-0.00023507 0.000859002 0)
(-0.000385014 0.000814189 0)
(-0.000523033 0.000750224 0)
(-0.000646465 0.000670141 0)
(-0.000753454 0.000576958 0)
(-0.000842977 0.000473366 0)
(-0.000914535 0.000361567 0)
(-0.000967879 0.000243231 0)
(-0.00100276 0.000119559 0)
(-0.00101885 -8.55435e-06 0)
(-0.00101516 -0.000140526 0)
(-0.000990179 -0.000275339 0)
(-0.000942222 -0.000411543 0)
(-0.000869196 -0.000546692 0)
(-0.00076906 -0.000676981 0)
(-0.000640438 -0.00079692 0)
(-0.000483585 -0.000899245 0)
(-0.000301264 -0.000975144 0)
(-0.000102115 -0.00100127 0)
(-9.15589e-05 0.00103747 0)
(-0.000272703 0.00102466 0)
(-0.000445109 0.000968738 0)
(-0.000602216 0.000889952 0)
(-0.000741221 0.000792667 0)
(-0.000860526 0.000681005 0)
(-0.000959646 0.000558445 0)
(-0.00103873 0.000427626 0)
(-0.00109816 0.000290318 0)
(-0.00113817 0.000147522 0)
(-0.00115884 -3.25392e-07 0)
(-0.00115917 -0.000153017 0)
(-0.00113721 -0.000310491 0)
(-0.00109045 -0.000471939 0)
(-0.00101544 -0.000635311 0)
(-0.000908273 -0.000796595 0)
(-0.000765413 -0.000949166 0)
(-0.000584965 -0.00108334 0)
(-0.00036872 -0.0011859 0)
(-0.00012607 -0.00122594 0)
(-0.000107885 0.00123499 0)
(-0.000320114 0.00121671 0)
(-0.000519723 0.00114613 0)
(-0.000699107 0.00104836 0)
(-0.000855419 0.000929846 0)
(-0.000987684 0.000796223 0)
(-0.00109636 0.000652001 0)
(-0.00118267 0.000500325 0)
(-0.00124799 0.000342993 0)
(-0.00129341 0.0001806 0)
(-0.00131939 1.28361e-05 0)
(-0.00132533 -0.00016092 0)
(-0.00130911 -0.000341961 0)
(-0.00126705 -0.000530752 0)
(-0.00119386 -0.000726411 0)
(-0.00108292 -0.000925461 0)
(-0.000927201 -0.00112042 0)
(-0.000720552 -0.0012989 0)
(-0.000462615 -0.00144063 0)
(-0.000160684 -0.00150581 0)
(-0.000129314 0.00146846 0)
(-0.000381009 0.00144123 0)
(-0.000613441 0.00135074 0)
(-0.000818507 0.00122792 0)
(-0.00099337 0.00108258 0)
(-0.00113838 0.000922401 0)
(-0.00125556 0.000753248 0)
(-0.00134775 0.000578841 0)
(-0.00141789 0.000400831 0)
(-0.00146834 0.000219126 0)
(-0.00150037 3.23272e-05 0)
(-0.00151398 -0.000161778 0)
(-0.00150705 -0.000366122 0)
(-0.00147492 -0.000583349 0)
(-0.00141016 -0.000814874 0)
(-0.0013023 -0.00105924 0)
(-0.00113886 -0.00130946 0)
(-0.000905527 -0.00155091 0)
(-0.000598622 -0.00175167 0)
(-0.000213968 -0.00186547 0)
(-0.000158332 0.00175179 0)
(-0.000460998 0.00170652 0)
(-0.000732979 0.00158791 0)
(-0.000967283 0.00143081 0)
(-0.00116095 0.00125079 0)
(-0.00131703 0.001058 0)
(-0.00143994 0.000860112 0)
(-0.0015351 0.00066121 0)
(-0.00160772 0.000462488 0)
(-0.00166193 0.000262799 0)
(-0.00170031 5.91397e-05 0)
(-0.0017238 -0.000152637 0)
(-0.0017307 -0.000377935 0)
(-0.00171582 -0.000622632 0)
(-0.00166977 -0.000891995 0)
(-0.00157752 -0.00118885 0)
(-0.00141885 -0.00150984 0)
(-0.00116337 -0.00184226 0)
(-0.000805492 -0.00213308 0)
(-0.000302732 -0.00234653 0)
(-0.000202469 0.00208045 0)
(-0.000572701 0.002019 0)
(-0.00088899 0.00186258 0)
(-0.00115566 0.00165819 0)
(-0.00136619 0.00143261 0)
(-0.00152908 0.0011996 0)
(-0.00165237 0.000968689 0)
(-0.00174539 0.000743864 0)
(-0.00181632 0.000525338 0)
(-0.0018717 0.000310445 0)
(-0.00191582 9.42229e-05 0)
(-0.00195107 -0.000130085 0)
(-0.00197707 -0.000370815 0)
(-0.00198901 -0.000638349 0)
(-0.00197641 -0.000943811 0)
(-0.00192018 -0.00129777 0)
(-0.00179212 -0.00170565 0)
(-0.00153004 -0.00216957 0)
(-0.00113758 -0.002597 0)
(-0.000463981 -0.00302338 0)
(-0.000251964 0.00259692 0)
(-0.000711731 0.00240591 0)
(-0.00109344 0.00218846 0)
(-0.00139738 0.00190962 0)
(-0.00161956 0.00162352 0)
(-0.001781 0.00134069 0)
(-0.00189571 0.00107221 0)
(-0.00197848 0.000820825 0)
(-0.00204116 0.000584847 0)
(-0.00209306 0.000359457 0)
(-0.00214086 0.000137378 0)
(-0.00218885 -9.13779e-05 0)
(-0.00223899 -0.000337266 0)
(-0.00228886 -0.000617405 0)
(-0.00232925 -0.000950412 0)
(-0.00233948 -0.00135957 0)
(-0.00228995 -0.0018659 0)
(-0.00205826 -0.00251433 0)
(-0.00169836 -0.00312829 0)
(-0.000782346 -0.00403486 0)
(-0.000436844 0.00282432 0)
(-0.00102437 0.00283825 0)
(-0.00138285 0.00254196 0)
(-0.00172091 0.00218088 0)
(-0.00193511 0.00181548 0)
(-0.00208049 0.00147118 0)
(-0.00217229 0.00116062 0)
(-0.0022328 0.000883415 0)
(-0.00227772 0.000634467 0)
(-0.00231919 0.000405934 0)
(-0.00236668 0.000188311 0)
(-0.00242575 -3.00088e-05 0)
(-0.00250315 -0.000266476 0)
(-0.00260228 -0.000538926 0)
(-0.00271881 -0.000871346 0)
(-0.00283639 -0.00130325 0)
(-0.0029446 -0.00187032 0)
(-0.00280418 -0.00277853 0)
(-0.00267514 -0.00355987 0)
(-0.00145213 -0.00563572 0)
(-0.000346342 0.0044913 0)
(-0.00106473 0.00324472 0)
(-0.00175888 0.00301429 0)
(-0.002128 0.00242068 0)
(-0.00232993 0.00196607 0)
(-0.00243609 0.00155813 0)
(-0.00248351 0.00121003 0)
(-0.00250465 0.000914321 0)
(-0.00251864 0.000661435 0)
(-0.00253921 0.000439463 0)
(-0.00257677 0.000235064 0)
(-0.00264356 3.29142e-05 0)
(-0.00274769 -0.000185965 0)
(-0.00289315 -0.000448935 0)
(-0.0030918 -0.000793828 0)
(-0.00333519 -0.00130716 0)
(-0.00374525 -0.00202796 0)
(-0.0037546 -0.00332836 0)
(-0.00435247 -0.00450663 0)
(-0.00264109 -0.00848482 0)
(-0.000556533 0.00352651 0)
(-0.00224433 0.00485511 0)
(-0.00200652 0.00359277 0)
(-0.00270541 0.00294224 0)
(-0.00277005 0.0022582 0)
(-0.00282672 0.0017034 0)
(-0.00281266 0.00127586 0)
(-0.00278067 0.000947218 0)
(-0.0027528 0.000689349 0)
(-0.00274585 0.000481443 0)
(-0.00277309 0.000308078 0)
(-0.00284592 0.000156124 0)
(-0.00298335 2.46463e-05 0)
(-0.00320788 -0.000104991 0)
(-0.00357502 -0.000230329 0)
(-0.00406712 -0.000488758 0)
(-0.00491509 -0.000579361 0)
(-0.00506939 -0.00220574 0)
(-0.00635656 -0.00270439 0)
(-0.00216619 -0.0125098 0)
(-0.00766156 0.00861078 0)
(-0.00459351 0.00316541 0)
(-0.00597448 0.00344688 0)
(-0.00499276 0.00248915 0)
(-0.00450345 0.00180297 0)
(-0.00400971 0.00133758 0)
(-0.00360268 0.00099901 0)
(-0.00328719 0.000742313 0)
(-0.00305471 0.000547202 0)
(-0.00289244 0.00039766 0)
(-0.00279261 0.000283008 0)
(-0.00274001 0.000189289 0)
(-0.00274493 0.00011881 0)
(-0.00275898 1.08183e-05 0)
(-0.00292825 -7.19087e-05 0)
(-0.00259907 -0.00052064 0)
(-0.00359622 -0.00112418 0)
(-0.00108646 -0.00382964 0)
(-0.00484332 -0.00810913 0)
(0.00365827 -0.0205179 0)
(0.0115264 0.0128829 0)
(0.0125524 0.00581371 0)
(0.0176943 0.00357204 0)
(0.0206405 0.0023659 0)
(0.0223518 0.00153977 0)
(0.0236545 0.00100552 0)
(0.0246293 0.000686046 0)
(0.0253335 0.000484175 0)
(0.0258492 0.000349208 0)
(0.0262338 0.000255468 0)
(0.0265002 0.000191887 0)
(0.0267292 0.000135862 0)
(0.0267435 0.000115646 0)
(0.0270826 6.53905e-06 0)
(0.0263203 6.40968e-05 0)
(0.027744 -0.000230264 0)
(0.0240007 -0.000345685 0)
(0.0277451 -0.00125783 0)
(0.0159539 -0.00280315 0)
(0.0194913 -0.00909471 0)
)
;

boundaryField
{
    movingWall
    {
        type            fixedValue;
        value           uniform (1 0 0);
    }
    fixedWalls
    {
        type            noSlip;
    }
    frontAndBack
    {
        type            empty;
    }
}


// ************************************************************************* //
