/*--------------------------------*- C++ -*----------------------------------*\
| =========                 |                                                 |
| \\      /  F ield         | OpenFOAM: The Open Source CFD Toolbox           |
|  \\    /   O peration     | Version:  5.x                                   |
|   \\  /    A nd           | Web:      www.OpenFOAM.org                      |
|    \\/     M anipulation  |                                                 |
\*---------------------------------------------------------------------------*/
FoamFile
{
    version     2.0;
    format      ascii;
    class       volScalarField;
    location    "14";
    object      p;
}
// * * * * * * * * * * * * * * * * * * * * * * * * * * * * * * * * * * * * * //

dimensions      [0 2 -2 0 0 0 0];

internalField   nonuniform List<scalar> 
400
(
-2.56748e-08
-0.000497493
-0.00085916
-0.0010746
-0.00118267
-0.00122396
-0.00123061
-0.00123727
-0.00123072
-0.00124059
-0.0012343
-0.00122787
-0.00121391
-0.00119491
-0.0011862
-0.00112003
-0.000990198
-0.000748662
-0.000567288
0.000333816
-0.000530974
-0.000885972
-0.00107828
-0.00119665
-0.00123186
-0.00124621
-0.00123121
-0.0012327
-0.00123003
-0.00123623
-0.00124358
-0.00122759
-0.00124364
-0.00121113
-0.00122325
-0.00115658
-0.00115079
-0.00102837
-0.00103437
-0.000376981
-0.000871388
-0.00111155
-0.00119202
-0.00124173
-0.00124262
-0.00125101
-0.00124418
-0.00124046
-0.00124046
-0.00123541
-0.00123968
-0.00122677
-0.00123255
-0.00120884
-0.00121574
-0.00116697
-0.0011524
-0.0010986
-0.00103985
-0.00078366
-0.00108659
-0.00121923
-0.00125115
-0.00125126
-0.00125212
-0.00124856
-0.00124687
-0.00124408
-0.00124295
-0.00123805
-0.00123782
-0.00122848
-0.00124083
-0.00121846
-0.00122808
-0.00118958
-0.00118338
-0.00114058
-0.00121213
-0.00103254
-0.00117305
-0.00126857
-0.00125873
-0.00126364
-0.0012531
-0.00125338
-0.00125248
-0.00124861
-0.00124935
-0.00123833
-0.0012383
-0.00123326
-0.00124026
-0.00122569
-0.00122779
-0.00120203
-0.00120603
-0.00118185
-0.00115991
-0.00111591
-0.00121159
-0.00124884
-0.00125093
-0.00125619
-0.00125647
-0.00125854
-0.00126097
-0.00125673
-0.00125614
-0.00124454
-0.00123657
-0.00123309
-0.00124246
-0.00122762
-0.00123699
-0.00121037
-0.00122459
-0.00119408
-0.00122221
-0.00118065
-0.0012343
-0.00125807
-0.00125266
-0.00126294
-0.00126444
-0.00126663
-0.00127052
-0.00126854
-0.00126489
-0.00125388
-0.00124745
-0.00125408
-0.00125945
-0.00124771
-0.00125594
-0.0012434
-0.00123795
-0.00120465
-0.00122418
-0.00119249
-0.001261
-0.00128822
-0.00127458
-0.00127608
-0.00128254
-0.00128782
-0.00129364
-0.00129106
-0.00128777
-0.00127452
-0.00126229
-0.00125006
-0.00125605
-0.00124114
-0.00125114
-0.00123775
-0.00126965
-0.00120331
-0.00125142
-0.00120812
-0.00129692
-0.00128272
-0.00129102
-0.00129656
-0.00130097
-0.00131075
-0.00132453
-0.00132355
-0.00131156
-0.00129819
-0.00130399
-0.00129341
-0.00129627
-0.00128598
-0.00129315
-0.00126795
-0.00127037
-0.00123126
-0.00129531
-0.00122377
-0.00131137
-0.00132502
-0.00132452
-0.00131912
-0.00133659
-0.00135622
-0.00137839
-0.00138847
-0.00137145
-0.00132753
-0.00131083
-0.00130556
-0.00128229
-0.00125561
-0.00127791
-0.00127186
-0.00129368
-0.00126826
-0.00127816
-0.00126
-0.00133182
-0.00134273
-0.00133871
-0.00134539
-0.00136427
-0.00140035
-0.00146635
-0.00149277
-0.00148448
-0.00142424
-0.00135994
-0.00134264
-0.00133338
-0.00132424
-0.00138473
-0.00133765
-0.0013947
-0.0013169
-0.00134041
-0.00126897
-0.00129845
-0.00129051
-0.00131542
-0.00133776
-0.00139696
-0.00150188
-0.00164384
-0.00172086
-0.00172295
-0.00159479
-0.00140202
-0.00130142
-0.00127532
-0.00125508
-0.00130593
-0.00128282
-0.00132486
-0.00126054
-0.00133767
-0.00123902
-0.00126633
-0.00129224
-0.00131185
-0.00135185
-0.00144475
-0.00160836
-0.00184898
-0.00192274
-0.00192125
-0.00172397
-0.00144057
-0.00129214
-0.00135908
-0.00135295
-0.00138362
-0.00132652
-0.00131613
-0.00127374
-0.00132562
-0.0012744
-0.0012568
-0.00124851
-0.00128894
-0.00131975
-0.00143963
-0.00162794
-0.00189399
-0.00196466
-0.0019334
-0.00175118
-0.00141945
-0.0012374
-0.00127561
-0.00126103
-0.00127332
-0.00130086
-0.00129267
-0.00122838
-0.00125405
-0.00133552
-0.00118212
-0.00121487
-0.00124509
-0.00128803
-0.00138052
-0.0015757
-0.00182152
-0.00191922
-0.00186023
-0.00169701
-0.00138095
-0.00128032
-0.00126478
-0.00132589
-0.00138625
-0.00145025
-0.00157204
-0.00142504
-0.00150858
-0.00134526
-0.00111935
-0.0011442
-0.00117832
-0.0011821
-0.00127075
-0.00143652
-0.0015859
-0.00168842
-0.00169272
-0.00159368
-0.00139076
-0.00126831
-0.00137016
-0.00141851
-0.00124022
-0.00132724
-0.00123938
-0.00117594
-0.00117449
-0.00118622
-0.00101429
-0.00102758
-0.00110852
-0.00112307
-0.00116215
-0.00126556
-0.00138016
-0.0014576
-0.00152172
-0.00150451
-0.00133458
-0.00118384
-0.0015928
-0.00152763
-0.00122552
-0.00149482
-0.00149546
-0.00120019
-0.001427
-0.00104471
-0.000831464
-0.000980916
-0.0010475
-0.00106529
-0.00107848
-0.00115053
-0.00125516
-0.0013203
-0.00152306
-0.00174855
-0.00166903
-0.00144584
-0.00137294
-0.00121561
-0.00129607
-0.00144953
-0.00126213
-0.000905149
-0.000764818
-0.000496934
-0.000562953
-0.000827042
-0.000955556
-0.00105353
-0.00104533
-0.00107111
-0.00102798
-0.0010496
-0.00151873
-0.002095
-0.00194487
-0.00137811
-0.00144673
-0.0010781
-0.00137886
-0.00121753
-0.00102614
-0.00156039
-0.000806369
-0.00036065
-0.000265449
-0.000599055
-0.000864233
-0.0010277
-0.00107591
-0.00109053
-0.00116532
-0.00132037
-0.00150526
-0.00154567
-0.00149824
-0.00147666
-0.00143612
-0.00139822
-0.00122576
-0.00100622
-0.000841159
-0.000799319
-0.000287743
0.00149001
)
;

boundaryField
{
    movingWall
    {
        type            zeroGradient;
    }
    fixedWalls
    {
        type            zeroGradient;
    }
    frontAndBack
    {
        type            empty;
    }
}


// ************************************************************************* //
