/*--------------------------------*- C++ -*----------------------------------*\
| =========                 |                                                 |
| \\      /  F ield         | OpenFOAM: The Open Source CFD Toolbox           |
|  \\    /   O peration     | Version:  5.x                                   |
|   \\  /    A nd           | Web:      www.OpenFOAM.org                      |
|    \\/     M anipulation  |                                                 |
\*---------------------------------------------------------------------------*/
FoamFile
{
    version     2.0;
    format      ascii;
    class       surfaceScalarField;
    location    "14";
    object      phi;
}
// * * * * * * * * * * * * * * * * * * * * * * * * * * * * * * * * * * * * * //

dimensions      [0 3 -1 0 0 0 0];

internalField   nonuniform List<scalar> 
760
(
-1.08859e-06
1.0886e-06
-1.78146e-06
6.92869e-07
-2.13792e-06
3.56457e-07
-2.29527e-06
1.57353e-07
-2.33292e-06
3.76461e-08
-2.37427e-06
4.13532e-08
-2.33735e-06
-3.69208e-08
-2.3798e-06
4.24474e-08
-2.35155e-06
-2.82457e-08
-2.4025e-06
5.09424e-08
-2.38758e-06
-1.49152e-08
-2.38407e-06
-3.51055e-09
-2.3755e-06
-8.5686e-09
-2.3329e-06
-4.2598e-08
-2.32928e-06
-3.61797e-09
-2.23592e-06
-9.33634e-08
-2.18534e-06
-5.05802e-08
-1.84544e-06
-3.39903e-07
-1.2153e-06
-6.30137e-07
-1.2153e-06
-5.93853e-07
1.68245e-06
-9.67852e-07
1.06687e-06
-1.0105e-06
3.99107e-07
-1.05023e-06
1.9708e-07
-1.05003e-06
3.74481e-08
-1.00942e-06
7.41855e-10
-1.04209e-06
-4.24824e-09
-9.94313e-07
-5.33166e-09
-1.02974e-06
7.1775e-09
-9.87737e-07
8.94347e-09
-1.00384e-06
1.19249e-09
-1.0092e-06
1.84492e-09
-1.0286e-06
1.08266e-08
-1.02099e-06
-5.02044e-08
-9.95451e-07
-2.91557e-08
-9.63409e-07
-1.25406e-07
-9.41164e-07
-7.28247e-08
-9.99459e-07
-2.81608e-07
-9.28839e-07
-7.00757e-07
-2.14414e-06
-3.09822e-07
1.99227e-06
-4.57988e-07
1.21503e-06
-3.86944e-07
3.28063e-07
-3.21605e-07
1.31741e-07
-3.02647e-07
1.84902e-08
-2.9807e-07
-3.83602e-09
-2.88986e-07
-1.33321e-08
-3.13154e-07
1.88366e-08
-2.93776e-07
-1.22007e-08
-3.13127e-07
2.82943e-08
-2.99002e-07
-1.29325e-08
-3.45446e-07
4.82891e-08
-3.62166e-07
2.7547e-08
-4.06659e-07
-5.71173e-09
-3.80094e-07
-5.5721e-08
-3.44713e-07
-1.60787e-07
-2.80847e-07
-1.36691e-07
-1.40799e-07
-4.21656e-07
-2.23681e-07
-6.17875e-07
-2.36782e-06
-1.39754e-07
2.13203e-06
-1.85801e-07
1.26108e-06
-2.08795e-07
3.51057e-07
-1.75547e-07
9.84929e-08
-1.92202e-07
3.5145e-08
-2.44405e-07
4.83667e-08
-2.76045e-07
1.83082e-08
-3.0726e-07
5.00517e-08
-3.04406e-07
-1.50549e-08
-2.98828e-07
2.27164e-08
-2.64129e-07
-4.76316e-08
-2.44722e-07
2.88821e-08
-2.03463e-07
-1.37123e-08
-1.79435e-07
-2.97398e-08
-1.8564e-07
-4.95159e-08
-1.03496e-07
-2.42931e-07
-1.73307e-07
-6.68795e-08
-2.91575e-07
-3.03388e-07
-2.36726e-07
-6.72724e-07
-2.60455e-06
-5.69484e-08
2.18897e-06
-4.13745e-08
1.24551e-06
-6.96386e-08
3.79321e-07
-1.21792e-07
1.50647e-07
-1.79449e-07
9.2802e-08
-2.31455e-07
1.00373e-07
-2.71373e-07
5.82257e-08
-2.7956e-07
5.82394e-08
-2.79814e-07
-1.48007e-08
-2.53706e-07
-3.3915e-09
-1.66938e-07
-1.344e-07
-1.48805e-07
1.075e-08
-1.00134e-07
-6.23834e-08
-6.42384e-08
-6.56358e-08
-8.22925e-08
-3.14618e-08
-1.09817e-07
-2.15407e-07
-4.45076e-08
-1.32189e-07
2.88209e-08
-3.76716e-07
-1.86718e-08
-6.25231e-07
-2.62322e-06
-1.94414e-09
2.19092e-06
1.82846e-08
1.22528e-06
1.58266e-08
3.81779e-07
-1.03265e-07
2.69738e-07
-1.97293e-07
1.8683e-07
-2.5593e-07
1.5901e-07
-3.13253e-07
1.15548e-07
-3.33074e-07
7.80606e-08
-3.42315e-07
-5.55921e-09
-3.1567e-07
-3.00373e-08
-2.03792e-07
-2.46278e-07
-1.85031e-07
-8.01058e-09
-1.60809e-07
-8.66054e-08
-1.30689e-07
-9.57565e-08
-1.72775e-07
1.06248e-08
-1.96392e-07
-1.9179e-07
-1.42307e-07
-1.86274e-07
-1.18702e-07
-4.00321e-07
-1.2728e-07
-6.16653e-07
-2.7505e-06
-7.56759e-08
2.26659e-06
-3.94448e-08
1.18905e-06
-7.35048e-08
4.15839e-07
-1.0348e-07
2.99713e-07
-2.00646e-07
2.83997e-07
-2.8299e-07
2.41354e-07
-3.33345e-07
1.65903e-07
-3.72178e-07
1.16894e-07
-3.75467e-07
-2.26984e-09
-3.20636e-07
-8.48678e-08
-1.32324e-07
-4.3459e-07
-1.44788e-07
4.45274e-09
-1.08818e-07
-1.22576e-07
-7.99605e-08
-1.24614e-07
6.75387e-10
-7.00111e-08
5.78301e-08
-2.48945e-07
-3.36223e-08
-9.48214e-08
-1.94562e-08
-4.14487e-07
-8.49809e-09
-6.27611e-07
-2.759e-06
-2.41249e-09
2.26901e-06
-3.11157e-08
1.21775e-06
-4.34434e-08
4.28166e-07
-1.66781e-07
4.2305e-07
-2.72866e-07
3.90082e-07
-3.68438e-07
3.36926e-07
-4.53572e-07
2.51037e-07
-4.65856e-07
1.29177e-07
-4.70996e-07
2.87045e-09
-3.44285e-07
-2.11578e-07
-1.94937e-07
-5.83939e-07
-2.22641e-07
3.21567e-08
-2.51724e-07
-9.3492e-08
-2.65849e-07
-1.10489e-07
-1.77825e-07
-1.58035e-07
-2.22824e-07
-2.03946e-07
-1.87859e-07
-1.29786e-07
-4.27898e-08
-5.59557e-07
-8.27429e-08
-5.87658e-07
-2.84174e-06
-2.81497e-08
2.29716e-06
-3.35255e-08
1.22313e-06
-1.12101e-07
5.06742e-07
-2.23067e-07
5.34015e-07
-2.94917e-07
4.61932e-07
-3.5676e-07
3.98768e-07
-4.67255e-07
3.61532e-07
-5.44233e-07
2.06156e-07
-4.74765e-07
-6.65981e-08
-2.27648e-07
-4.58695e-07
-1.00088e-07
-7.11499e-07
-1.67327e-07
9.93964e-08
-1.75954e-07
-8.48649e-08
-2.09051e-07
-7.73919e-08
-2.23944e-07
-1.43142e-07
-2.37141e-07
-1.90748e-07
-1.8715e-07
-1.79777e-07
-5.41816e-08
-6.92526e-07
-7.80507e-09
-6.34034e-07
-2.84955e-06
-2.93537e-08
2.32651e-06
-8.16196e-08
1.27539e-06
-1.56844e-07
5.81967e-07
-1.61251e-07
5.38422e-07
-2.66728e-07
5.6741e-07
-4.56203e-07
5.88243e-07
-6.16704e-07
5.22033e-07
-6.89293e-07
2.78745e-07
-5.69342e-07
-1.8655e-07
-3.03188e-07
-7.24849e-07
-2.40556e-07
-7.74131e-07
-2.4321e-07
1.0205e-07
-2.61442e-07
-6.66333e-08
-3.02842e-07
-3.59921e-08
-4.14346e-07
-3.16378e-08
-4.02437e-07
-2.02658e-07
-3.15e-07
-2.67214e-07
-2.83944e-07
-7.23582e-07
-6.19143e-08
-8.56064e-07
-2.91146e-06
7.92191e-08
2.24729e-06
5.76989e-08
1.29691e-06
2.1209e-08
6.18457e-07
-9.74265e-09
5.69374e-07
-2.01388e-07
7.59055e-07
-5.45388e-07
9.32243e-07
-7.93624e-07
7.70269e-07
-7.62542e-07
2.47663e-07
-6.33721e-07
-3.15371e-07
-4.24423e-07
-9.34146e-07
-1.86972e-07
-1.01158e-06
-3.1524e-09
-8.17694e-08
3.54991e-08
-1.05285e-07
-8.76743e-08
8.71814e-08
-1.52344e-07
3.3032e-08
-1.05763e-07
-2.49239e-07
-7.08366e-08
-3.02141e-07
-1.4667e-07
-6.47748e-07
-8.08064e-08
-9.21927e-07
-2.99227e-06
4.21223e-08
2.20517e-06
5.53194e-08
1.28372e-06
6.20747e-09
6.67569e-07
-2.55465e-07
8.31046e-07
-5.08214e-07
1.0118e-06
-6.68973e-07
1.093e-06
-7.74647e-07
8.75943e-07
-7.36411e-07
2.09428e-07
-6.72551e-07
-3.79231e-07
-5.5853e-07
-1.04817e-06
-3.61712e-07
-1.2084e-06
-3.25205e-08
-4.10961e-07
1.18988e-07
-2.56793e-07
1.75627e-07
3.05417e-08
2.08344e-07
3.15525e-10
1.0039e-07
-1.41284e-07
1.661e-07
-3.67852e-07
5.84579e-08
-5.40106e-07
-1.50866e-08
-8.48383e-07
-3.00735e-06
2.81192e-08
2.17705e-06
5.37816e-08
1.25805e-06
-1.11208e-07
8.32558e-07
-2.19994e-07
9.39832e-07
-3.27264e-07
1.11907e-06
-4.07105e-07
1.17284e-06
-3.30579e-07
7.99417e-07
-2.4045e-07
1.19299e-07
-1.35524e-07
-4.84157e-07
-1.00121e-07
-1.08357e-06
-4.11294e-08
-1.26739e-06
2.2779e-07
-6.7988e-07
4.0351e-07
-4.32513e-07
4.83808e-07
-4.97561e-08
4.60624e-07
2.34997e-08
2.68026e-07
5.13135e-08
1.69255e-07
-2.69081e-07
8.77971e-08
-4.58648e-07
-2.21131e-08
-7.38473e-07
-3.02947e-06
6.39025e-08
2.11315e-06
7.30437e-08
1.24891e-06
1.34487e-07
7.71115e-07
1.15563e-07
9.58756e-07
5.38218e-08
1.18081e-06
1.28246e-07
1.09842e-06
2.52604e-07
6.75059e-07
3.26095e-07
4.58081e-08
3.96951e-07
-5.55013e-07
3.89372e-07
-1.07599e-06
1.90612e-07
-1.06863e-06
1.57889e-07
-6.47158e-07
-1.3593e-07
-1.38694e-07
-2.73151e-07
8.74648e-08
-3.52858e-07
1.03207e-07
-5.19976e-07
2.18431e-07
-3.86258e-07
-4.02799e-07
-2.81708e-07
-5.63198e-07
-2.05892e-08
-9.99592e-07
-3.05006e-06
4.10235e-08
2.07212e-06
1.30869e-07
1.15907e-06
1.64135e-07
7.37849e-07
2.46914e-07
8.75977e-07
4.66166e-07
9.61563e-07
6.13722e-07
9.50863e-07
7.94277e-07
4.94503e-07
9.25151e-07
-8.50652e-08
9.56804e-07
-5.86666e-07
8.60565e-07
-9.79752e-07
6.02976e-07
-8.11043e-07
5.70232e-07
-6.14414e-07
5.88116e-07
-1.56578e-07
2.11733e-07
4.63847e-07
7.73102e-08
2.3763e-07
1.09538e-07
1.86203e-07
3.24819e-08
-3.25742e-07
-1.32635e-07
-3.98081e-07
-8.4645e-08
-1.04758e-06
-3.1347e-06
9.286e-08
1.97926e-06
2.50748e-07
1.00118e-06
3.50223e-07
6.38374e-07
5.64913e-07
6.61287e-07
9.65459e-07
5.61017e-07
1.15653e-06
7.59796e-07
1.39434e-06
2.56688e-07
1.36638e-06
-5.71027e-08
1.41318e-06
-6.33467e-07
1.2883e-06
-8.54871e-07
9.07696e-07
-4.30442e-07
6.19404e-07
-3.26121e-07
7.08919e-07
-2.46093e-07
5.71882e-07
6.00884e-07
5.91163e-07
2.18349e-07
6.37204e-07
1.40163e-07
4.18183e-07
-1.06722e-07
1.83818e-07
-1.63716e-07
2.23718e-07
-1.08748e-06
-2.91098e-06
1.11683e-07
1.86758e-06
2.07852e-07
9.05009e-07
3.57479e-07
4.88747e-07
6.54789e-07
3.63977e-07
8.1486e-07
4.00946e-07
1.13072e-06
4.43936e-07
1.33295e-06
5.44528e-08
1.54225e-06
-2.66399e-07
1.60946e-06
-7.00673e-07
1.30098e-06
-5.4639e-07
5.47265e-07
3.23269e-07
-2.05078e-07
4.26222e-07
-7.3117e-07
2.79999e-07
-3.90003e-07
2.59718e-07
-1.79782e-07
8.12768e-09
-3.19203e-07
2.79583e-07
1.98889e-07
-6.24813e-07
3.0115e-07
-2.65977e-07
-5.97482e-10
-7.85735e-07
-2.91158e-06
3.31938e-07
1.53564e-06
3.6226e-07
8.74686e-07
4.10555e-07
4.40453e-07
5.92883e-07
1.81649e-07
9.33673e-07
6.01556e-08
1.3326e-06
4.50079e-08
1.422e-06
-3.4948e-08
1.62788e-06
-4.72273e-07
1.54642e-06
-6.19213e-07
1.28947e-06
-2.89443e-07
1.23449e-06
3.78247e-07
1.27953e-06
3.81185e-07
1.12158e-06
4.37949e-07
1.28048e-06
1.00817e-07
1.5735e-06
-2.84895e-07
1.55034e-06
3.02747e-07
1.22359e-06
-2.98061e-07
7.3684e-07
2.20769e-07
4.55607e-07
-5.04502e-07
-2.45597e-06
4.76765e-07
1.05888e-06
6.97846e-07
6.53606e-07
7.88447e-07
3.49851e-07
8.00965e-07
1.69131e-07
7.35003e-07
1.26117e-07
6.27888e-07
1.52123e-07
4.16367e-07
1.76573e-07
-2.4213e-07
1.86224e-07
-9.44591e-07
8.32479e-08
-1.28346e-06
4.94284e-08
-9.40021e-07
3.48057e-08
-5.63133e-07
4.29743e-09
-1.89615e-07
6.44319e-08
-2.28609e-08
-6.59373e-08
-2.28049e-07
-7.97072e-08
1.18059e-07
-4.336e-08
-2.61211e-07
8.12089e-08
1.54516e-09
-4.19878e-08
6.73469e-07
-1.17643e-06
-1.7825e-06
1.05888e-06
1.71248e-06
2.06233e-06
2.23147e-06
2.35758e-06
2.50971e-06
2.68628e-06
2.8725e-06
2.95575e-06
3.00518e-06
3.03998e-06
3.04428e-06
3.10871e-06
3.04278e-06
2.96307e-06
2.91971e-06
3.00092e-06
2.95893e-06
1.7825e-06
)
;

boundaryField
{
    movingWall
    {
        type            calculated;
        value           uniform 0;
    }
    fixedWalls
    {
        type            calculated;
        value           uniform 0;
    }
    frontAndBack
    {
        type            empty;
        value           nonuniform 0();
    }
}


// ************************************************************************* //
