/*--------------------------------*- C++ -*----------------------------------*\
| =========                 |                                                 |
| \\      /  F ield         | OpenFOAM: The Open Source CFD Toolbox           |
|  \\    /   O peration     | Version:  5.x                                   |
|   \\  /    A nd           | Web:      www.OpenFOAM.org                      |
|    \\/     M anipulation  |                                                 |
\*---------------------------------------------------------------------------*/
FoamFile
{
    version     2.0;
    format      ascii;
    class       volVectorField;
    location    "14";
    object      U;
}
// * * * * * * * * * * * * * * * * * * * * * * * * * * * * * * * * * * * * * //

dimensions      [0 1 -1 0 0 0 0];

internalField   nonuniform List<vector> 
400
(
(-0.0147727 0.00933648 0)
(-0.032474 0.00383435 0)
(-0.0395918 0.00285964 0)
(-0.0448257 0.000474938 0)
(-0.0455183 -0.000846016 0)
(-0.0477957 2.21794e-05 0)
(-0.0457414 -0.00221236 0)
(-0.0485226 0.00105611 0)
(-0.0456415 -0.00194294 0)
(-0.0490282 0.00147647 0)
(-0.0468512 -0.0014812 0)
(-0.048395 0.000130169 0)
(-0.0472328 -0.000926908 0)
(-0.0473172 -0.000673268 0)
(-0.0475851 -0.00073088 0)
(-0.046569 -0.0017138 0)
(-0.0441967 -0.00112884 0)
(-0.0404753 -0.00474554 0)
(-0.0386901 -0.0071876 0)
(-0.00366794 -0.0149531 0)
(-0.00816803 0.0302658 0)
(-0.0180649 0.0211223 0)
(-0.019369 0.0098844 0)
(-0.0205889 0.00502474 0)
(-0.0203323 0.0020965 0)
(-0.0219287 0.00144247 0)
(-0.0176342 0.000734672 0)
(-0.0241201 0.000759244 0)
(-0.0154854 0.000896679 0)
(-0.0254075 0.000660411 0)
(-0.0147817 0.000813226 0)
(-0.024411 -0.000281574 0)
(-0.0171967 0.000475294 0)
(-0.0225902 -0.00120797 0)
(-0.0197957 0.00050996 0)
(-0.018409 -0.00236818 0)
(-0.0219356 -0.00146619 0)
(-0.013571 -0.0106669 0)
(-0.0303729 -0.0214337 0)
(-0.00184083 -0.0386026 0)
(-0.00440478 0.0380594 0)
(-0.00955688 0.0224862 0)
(-0.00768903 0.0066946 0)
(-0.00819137 0.00321518 0)
(-0.00405252 -0.000427644 0)
(-0.00845795 -0.00140025 0)
(-0.00314844 -0.000949919 0)
(-0.00824507 -0.00101615 0)
(-0.00455907 -0.000657792 0)
(-0.00685235 -0.000323696 0)
(-0.00611149 -0.000745006 0)
(-0.00537776 0.000367133 0)
(-0.00901591 7.30283e-05 0)
(-0.00481978 -0.000623487 0)
(-0.0122678 -0.0014827 0)
(-0.00212917 -0.00232639 0)
(-0.0123519 -0.000918092 0)
(0.00156282 0.000407396 0)
(-0.00792646 -0.00364018 0)
(0.000396888 -0.0446801 0)
(-0.00229872 0.0425736 0)
(-0.00409889 0.0272393 0)
(-0.00282486 0.00654586 0)
(-0.00523587 0.00237688 0)
(-0.00176052 0.00111109 0)
(-0.00577567 0.00127958 0)
(-0.00416426 0.000474853 0)
(-0.00669839 0.00179906 0)
(-0.00580216 0.000226535 0)
(-0.00611844 0.00140295 0)
(-0.00613892 0.000253502 0)
(-0.00401956 0.00159418 0)
(-0.0062952 0.000903807 0)
(-0.00132344 0.000354366 0)
(-0.00638548 -0.000934513 0)
(-0.000503645 -0.00437904 0)
(-0.00400332 -0.00487099 0)
(-0.00221392 -0.0168105 0)
(-0.0109016 -0.0232624 0)
(0.00285414 -0.0509154 0)
(-0.00278836 0.0445569 0)
(3.51539e-05 0.0238438 0)
(-0.00137879 0.00805484 0)
(-0.00161644 0.00136014 0)
(-0.00299636 0.000386684 0)
(-0.00435666 0.000579863 0)
(-0.00504377 0.000274299 0)
(-0.00558136 0.000259383 0)
(-0.00591263 -0.000864064 0)
(-0.00491383 -0.000432666 0)
(-0.00553623 -0.00222823 0)
(-0.000891185 -0.000502312 0)
(-0.00537991 -0.0013964 0)
(0.00165039 -0.00159006 0)
(-0.00445511 -0.000899102 0)
(0.00146191 -0.00517109 0)
(-0.00619962 0.00220027 0)
(0.00457773 0.00428715 0)
(-0.00354779 -0.00152404 0)
(0.00295358 -0.0504735 0)
(0.00060396 0.0436909 0)
(-0.000744595 0.0274352 0)
(0.00158694 0.00744282 0)
(-0.00100439 0.00498329 0)
(-0.00301658 0.0032926 0)
(-0.004794 0.00346731 0)
(-0.00565521 0.00200435 0)
(-0.00660647 0.00204609 0)
(-0.0070298 0.000297332 0)
(-0.006344 0.000283385 0)
(-0.00637871 -0.00296224 0)
(-0.0015874 0.00100393 0)
(-0.00618105 -0.00097914 0)
(0.000140738 -0.000860137 0)
(-0.0057597 -0.000325658 0)
(-0.000646017 -0.00308806 0)
(-0.00778136 -0.00741632 0)
(0.00262332 -0.0189149 0)
(-0.0079151 -0.0249405 0)
(0.00334917 -0.0558112 0)
(-0.00337193 0.0450319 0)
(4.66667e-05 0.0209788 0)
(-0.00142434 0.00775028 0)
(-0.00170386 0.00558324 0)
(-0.00239384 0.00430786 0)
(-0.00552684 0.00306022 0)
(-0.00600847 0.0027844 0)
(-0.00713893 0.00117708 0)
(-0.00798505 -0.000481033 0)
(-0.0067184 -0.00141512 0)
(-0.00587371 -0.00707112 0)
(0.000356715 -0.0014174 0)
(-0.00633966 -0.00273645 0)
(0.00226741 -0.00326337 0)
(-0.00571729 0.000671248 0)
(0.00576636 -0.00507877 0)
(-0.00365425 0.000254322 0)
(0.00253795 0.0026378 0)
(-0.00351718 0.00126378 0)
(0.00329496 -0.0525175 0)
(0.00135171 0.0451414 0)
(-0.0014989 0.026495 0)
(0.00044908 0.00849023 0)
(-0.00217709 0.00656749 0)
(-0.00467707 0.00688127 0)
(-0.00609911 0.00638925 0)
(-0.00891406 0.00371203 0)
(-0.00894061 0.00353614 0)
(-0.00998431 0.000365107 0)
(-0.00877265 -0.00209107 0)
(-0.00475375 -0.00984183 0)
(-0.00280048 0.00166613 0)
(-0.00654832 -0.00176032 0)
(-0.00303643 -0.00127739 0)
(-0.00810225 -0.00315677 0)
(0.00147735 -0.00426719 0)
(-0.0111761 -0.00435507 0)
(0.00454667 -0.0186609 0)
(-0.0066785 -0.0261732 0)
(0.00383915 -0.0585342 0)
(-0.000372544 0.0455951 0)
(-0.000610909 0.0230187 0)
(-0.000856783 0.00908038 0)
(-0.00353285 0.0100703 0)
(-0.00533558 0.0090593 0)
(-0.00656868 0.00745521 0)
(-0.00805788 0.00660534 0)
(-0.0104791 0.0018549 0)
(-0.0109855 -0.000204599 0)
(-0.00778202 -0.00642094 0)
(-0.00157305 -0.0143614 0)
(-0.00219406 -0.000590907 0)
(-0.00481455 -0.00241315 0)
(-0.00188471 -0.00367363 0)
(-0.00692892 -0.00373719 0)
(-0.0015308 -0.00440232 0)
(-0.00850734 -0.000467448 0)
(0.00174302 -0.00419598 0)
(-0.00440855 0.00168421 0)
(0.00427657 -0.0541569 0)
(-0.000445933 0.046751 0)
(-0.000845099 0.024633 0)
(-0.00228078 0.0105658 0)
(-0.00370122 0.0115061 0)
(-0.00301635 0.00890687 0)
(-0.00765764 0.00805303 0)
(-0.0109427 0.00815594 0)
(-0.0138302 0.00660009 0)
(-0.0136026 -0.00231493 0)
(-0.00842302 -0.011211 0)
(-0.00391987 -0.0130732 0)
(-0.00586457 0.00488729 0)
(-0.00399379 -0.000526099 0)
(-0.00593136 0.00110291 0)
(-0.0068654 -0.00126252 0)
(-0.00902574 -0.00263955 0)
(-0.0078606 -0.0062834 0)
(-0.00400922 -0.023087 0)
(-0.00792348 -0.0256961 0)
(0.00567735 -0.0611576 0)
(0.00181976 0.0450705 0)
(0.00127315 0.0267547 0)
(0.00110822 0.0129629 0)
(-0.000207685 0.00948699 0)
(-0.000139973 0.0143174 0)
(-0.00788015 0.0163761 0)
(-0.0148294 0.0134988 0)
(-0.016474 0.00523048 0)
(-0.0139898 -0.00462546 0)
(-0.0106003 -0.0172824 0)
(-0.00574894 -0.0187291 0)
(-0.00208649 -0.00123976 0)
(0.00194146 -0.00262237 0)
(-0.000303758 -0.00295753 0)
(-0.00376533 -0.000453006 0)
(-0.00151726 -0.00632466 0)
(-0.00343351 -0.00555179 0)
(0.00119425 -0.00717527 0)
(-0.00782529 -0.0101076 0)
(0.00511037 -0.0564367 0)
(0.000914703 0.0464007 0)
(0.000939877 0.0264442 0)
(0.00106656 0.0123642 0)
(-0.000766515 0.0140896 0)
(-0.00923628 0.0159541 0)
(-0.0116493 0.0198022 0)
(-0.0162698 0.0162886 0)
(-0.0144995 0.00382416 0)
(-0.015618 -0.00902021 0)
(-0.0103922 -0.0215505 0)
(-0.0106281 -0.0215614 0)
(-0.00431327 -0.00160623 0)
(0.00280911 -0.000871428 0)
(0.00234994 0.00717287 0)
(0.00396202 0.00224446 0)
(0.00512402 -0.00260471 0)
(-0.00169176 -0.00536156 0)
(0.00923974 -0.0172064 0)
(-0.00749501 -0.0258164 0)
(0.00718404 -0.0610098 0)
(2.5921e-05 0.0407258 0)
(0.000969261 0.0232935 0)
(0.00134065 0.0136056 0)
(-0.0054907 0.0180339 0)
(-0.00338331 0.0232349 0)
(-0.00990965 0.022535 0)
(-0.00778599 0.0169806 0)
(-0.00464235 0.00383359 0)
(-0.00572861 -0.00722185 0)
(0.000844919 -0.0215895 0)
(-0.00418375 -0.0278383 0)
(0.00276692 -0.0156161 0)
(0.00521086 -0.0106389 0)
(0.0118432 -0.00642261 0)
(0.00641492 -0.00240403 0)
(0.0131394 -0.00374358 0)
(-0.00311831 -0.010134 0)
(0.0105829 -0.00561828 0)
(-0.00768231 -0.0091334 0)
(0.00706408 -0.0583648 0)
(0.00128676 0.0458659 0)
(0.00153243 0.0283111 0)
(0.00110365 0.019697 0)
(0.00479126 0.0201848 0)
(-0.000395285 0.0220018 0)
(0.00253008 0.0243408 0)
(0.00176079 0.0155134 0)
(0.00902809 0.00130302 0)
(0.00354661 -0.0111639 0)
(0.0125595 -0.02101 0)
(0.00455789 -0.0220196 0)
(0.003436 -0.010187 0)
(0.00194532 -0.0052467 0)
(-0.0069099 0.00501525 0)
(-0.00436522 0.00378777 0)
(-0.00993378 0.00628134 0)
(-0.0114862 0.000688275 0)
(-0.00288082 -0.0110574 0)
(-0.00892134 -0.0180232 0)
(0.00785739 -0.0643903 0)
(-0.00218156 0.0398914 0)
(0.00364778 0.0203519 0)
(0.00183118 0.0107042 0)
(0.00508097 0.0169923 0)
(0.00529591 0.0248979 0)
(0.012523 0.0187459 0)
(0.0105082 0.0109018 0)
(0.021334 0.000273857 0)
(0.0164737 -0.010741 0)
(0.0214462 -0.0212751 0)
(0.0154996 -0.0196752 0)
(0.00733311 -0.0170896 0)
(0.0154439 -9.53545e-06 0)
(0.00727841 -0.00200047 0)
(0.000953974 -0.00066814 0)
(0.00240983 0.00107702 0)
(0.00115866 -0.0195142 0)
(0.000695153 -0.0142409 0)
(-0.00713622 -0.0261963 0)
(0.00459034 -0.0605384 0)
(0.00273087 0.0412568 0)
(0.00105041 0.0268288 0)
(0.00848514 0.0194772 0)
(0.00645408 0.0195331 0)
(0.0155878 0.0145591 0)
(0.0216918 0.0205173 0)
(0.0237831 0.0102363 0)
(0.0307731 -0.00309004 0)
(0.0237934 -0.0116611 0)
(0.0335366 -0.0166835 0)
(0.0202283 -0.0139555 0)
(0.0173123 -0.00709575 0)
(0.00563864 -0.00612727 0)
(0.0212818 0.0209728 0)
(0.0039295 0.0115497 0)
(0.0174236 0.0078007 0)
(0.00972197 0.00929595 0)
(0.00748681 0.000695147 0)
(-0.000578656 -0.0108034 0)
(0.00956186 -0.0615456 0)
(-0.0018257 0.0386894 0)
(0.00660818 0.0145312 0)
(0.000969349 0.00590538 0)
(0.0141427 0.00609031 0)
(0.0127483 0.0084789 0)
(0.0188307 0.0108796 0)
(0.0257722 0.000494383 0)
(0.0285489 0.00114817 0)
(0.0313664 -0.012171 0)
(0.0334367 -0.0152178 0)
(0.0207934 -0.00130832 0)
(0.00344154 -0.00433625 0)
(-0.0137071 -0.00535794 0)
(-0.013725 0.000794767 0)
(0.000624018 -0.00326472 0)
(-0.00956873 -0.0033738 0)
(-0.00368864 -0.0150895 0)
(0.0134353 -0.00861926 0)
(-0.00398724 -0.0383523 0)
(0.00445887 -0.0596135 0)
(0.00110931 0.0350068 0)
(0.0108995 0.0198186 0)
(0.00420593 0.0132537 0)
(0.0128582 0.00910466 0)
(0.0117026 0.00794218 0)
(0.0246574 0.0063849 0)
(0.0282792 0.00125239 0)
(0.0309423 -0.012913 0)
(0.0318144 -0.0174827 0)
(0.027291 -0.00817376 0)
(0.0263016 0.0125272 0)
(0.0256798 0.0190177 0)
(0.0232496 0.018583 0)
(0.0240436 0.0113426 0)
(0.0250578 0.00347419 0)
(0.034499 0.0150135 0)
(0.0297415 -0.00739511 0)
(0.0222098 0.000568438 0)
(0.00500876 0.0119342 0)
(0.0151075 -0.0501838 0)
(0.00107357 0.02772 0)
(0.0160557 0.0163046 0)
(0.0129033 0.00471825 0)
(0.0177493 -0.00231873 0)
(0.015808 -0.00552499 0)
(0.0122615 -0.00433258 0)
(0.0142828 -0.00207159 0)
(0.00413517 -0.00342626 0)
(-0.0151239 -0.0076013 0)
(-0.0265942 -0.00579084 0)
(-0.0218583 0.000369489 0)
(-0.0113543 -0.00185322 0)
(-0.0146319 -0.00285822 0)
(0.00911085 -0.00656373 0)
(-0.0107673 -0.0159964 0)
(0.00304251 -0.00182579 0)
(0.00302164 -0.00419355 0)
(-0.0167075 0.00502098 0)
(0.0175673 -0.035678 0)
(0.0106339 -0.0581898 0)
(0.0102067 0.0172556 0)
(0.0292189 0.0117662 0)
(0.0391292 0.0100518 0)
(0.0440301 0.00947029 0)
(0.0473298 0.0101018 0)
(0.0486494 0.00982486 0)
(0.0505004 0.00779206 0)
(0.0553635 0.009143 0)
(0.0578711 0.0111425 0)
(0.0622957 0.00896536 0)
(0.057504 0.00192392 0)
(0.0634103 0.00187506 0)
(0.0599403 0.0057707 0)
(0.063375 0.00290626 0)
(0.0607998 0.0135918 0)
(0.0586889 0.000485498 0)
(0.0576044 0.00792221 0)
(0.0562355 -0.00534869 0)
(0.0556416 -0.00637787 0)
(0.0260368 -0.00187969 0)
)
;

boundaryField
{
    movingWall
    {
        type            fixedValue;
        value           uniform (1 0 0);
    }
    fixedWalls
    {
        type            noSlip;
    }
    frontAndBack
    {
        type            empty;
    }
}


// ************************************************************************* //
