/*--------------------------------*- C++ -*----------------------------------*\
| =========                 |                                                 |
| \\      /  F ield         | OpenFOAM: The Open Source CFD Toolbox           |
|  \\    /   O peration     | Version:  5.x                                   |
|   \\  /    A nd           | Web:      www.OpenFOAM.org                      |
|    \\/     M anipulation  |                                                 |
\*---------------------------------------------------------------------------*/
FoamFile
{
    version     2.0;
    format      ascii;
    class       surfaceScalarField;
    location    "13.9";
    object      phi;
}
// * * * * * * * * * * * * * * * * * * * * * * * * * * * * * * * * * * * * * //

dimensions      [0 3 -1 0 0 0 0];

internalField   nonuniform List<scalar> 
760
(
-1.08974e-06
1.08974e-06
-1.78257e-06
6.92833e-07
-2.12959e-06
3.47018e-07
-2.30015e-06
1.70557e-07
-2.33487e-06
3.47286e-08
-2.39102e-06
5.61479e-08
-2.34602e-06
-4.49981e-08
-2.38539e-06
3.93636e-08
-2.35005e-06
-3.53418e-08
-2.39401e-06
4.39627e-08
-2.39452e-06
5.15912e-10
-2.38941e-06
-5.11795e-09
-2.38395e-06
-5.45916e-09
-2.33218e-06
-5.17673e-08
-2.32889e-06
-3.29385e-09
-2.23245e-06
-9.64403e-08
-2.17336e-06
-5.90881e-08
-1.83746e-06
-3.35894e-07
-1.20205e-06
-6.35409e-07
-1.20205e-06
-5.91442e-07
1.68118e-06
-9.76733e-07
1.07812e-06
-1.0242e-06
3.94488e-07
-1.0489e-06
1.95256e-07
-1.05682e-06
4.26462e-08
-1.00304e-06
2.36942e-09
-1.039e-06
-9.03892e-09
-9.90527e-07
-9.10917e-09
-1.02523e-06
-6.35726e-10
-9.90436e-07
9.16541e-09
-9.94825e-07
4.90515e-09
-1.003e-06
3.05268e-09
-1.02285e-06
1.43985e-08
-1.02214e-06
-5.24855e-08
-9.97465e-07
-2.79645e-08
-9.60004e-07
-1.33901e-07
-9.3406e-07
-8.50317e-08
-9.86959e-07
-2.82995e-07
-9.24144e-07
-6.98224e-07
-2.1262e-06
-3.08628e-07
1.98981e-06
-4.56578e-07
1.22607e-06
-3.93586e-07
3.31496e-07
-3.24853e-07
1.26522e-07
-3.00989e-07
1.87831e-08
-2.95991e-07
-2.62872e-09
-2.85027e-07
-2.00033e-08
-3.09433e-07
1.52971e-08
-2.9123e-07
-1.88388e-08
-3.0856e-07
2.64952e-08
-2.9122e-07
-1.24342e-08
-3.3344e-07
4.52724e-08
-3.49651e-07
3.06095e-08
-3.9606e-07
-6.07683e-09
-3.7229e-07
-5.17341e-08
-3.36853e-07
-1.69338e-07
-2.73149e-07
-1.48736e-07
-1.31498e-07
-4.24647e-07
-2.14635e-07
-6.15087e-07
-2.34083e-06
-1.37284e-07
2.12709e-06
-1.6419e-07
1.25298e-06
-1.97259e-07
3.64565e-07
-1.72097e-07
1.0136e-07
-1.87121e-07
3.38067e-08
-2.37491e-07
4.77415e-08
-2.70205e-07
1.27103e-08
-3.02102e-07
4.71945e-08
-3.01978e-07
-1.89628e-08
-2.97081e-07
2.15981e-08
-2.65016e-07
-4.44994e-08
-2.44261e-07
2.45177e-08
-2.00679e-07
-1.29727e-08
-1.73314e-07
-3.34412e-08
-1.76851e-07
-4.81976e-08
-9.23858e-08
-2.53803e-07
-1.6326e-07
-7.78618e-08
-2.84149e-07
-3.03757e-07
-2.30904e-07
-6.68332e-07
-2.57174e-06
-5.40453e-08
2.18114e-06
-3.62016e-08
1.23514e-06
-5.67401e-08
3.85103e-07
-1.14123e-07
1.58742e-07
-1.74241e-07
9.39252e-08
-2.26022e-07
9.95228e-08
-2.67286e-07
5.39743e-08
-2.75242e-07
5.51506e-08
-2.7575e-07
-1.84548e-08
-2.52108e-07
-2.04387e-09
-1.69017e-07
-1.27591e-07
-1.47144e-07
2.64522e-09
-9.61419e-08
-6.3975e-08
-5.73135e-08
-7.22696e-08
-6.85817e-08
-3.69294e-08
-9.41683e-08
-2.28217e-07
-3.29133e-08
-1.39117e-07
3.62311e-08
-3.72902e-07
-8.87953e-09
-6.23222e-07
-2.58062e-06
-2.41637e-08
2.2053e-06
6.57371e-09
1.2044e-06
1.1972e-08
3.79705e-07
-1.01653e-07
2.72367e-07
-1.94534e-07
1.86807e-07
-2.51859e-07
1.56847e-07
-3.07928e-07
1.10044e-07
-3.27266e-07
7.44889e-08
-3.35678e-07
-1.00434e-08
-3.13138e-07
-2.45831e-08
-2.08082e-07
-2.32647e-07
-1.86297e-07
-1.91396e-08
-1.59913e-07
-9.03592e-08
-1.2739e-07
-1.04793e-07
-1.66119e-07
1.79946e-09
-1.94227e-07
-2.00109e-07
-1.3661e-07
-1.96733e-07
-1.12948e-07
-3.96564e-07
-1.24771e-07
-6.11398e-07
-2.70539e-06
-7.53428e-08
2.28064e-06
-5.2298e-08
1.18135e-06
-7.98531e-08
4.0726e-07
-1.05193e-07
2.97707e-07
-1.99867e-07
2.81481e-07
-2.81826e-07
2.38806e-07
-3.30153e-07
1.5837e-07
-3.64787e-07
1.09123e-07
-3.70335e-07
-4.49586e-09
-3.2652e-07
-6.83981e-08
-1.43931e-07
-4.15236e-07
-1.43721e-07
-1.93499e-08
-1.03972e-07
-1.30108e-07
-7.26115e-08
-1.36153e-07
6.23999e-09
-7.7052e-08
6.57211e-08
-2.5959e-07
-2.68478e-08
-1.04164e-07
-1.93799e-08
-4.04032e-07
-5.20807e-09
-6.2557e-07
-2.7106e-06
1.44874e-08
2.26616e-06
-3.17284e-08
1.22757e-06
-4.31374e-08
4.18669e-07
-1.71088e-07
4.25658e-07
-2.73833e-07
3.84226e-07
-3.62199e-07
3.27172e-07
-4.48532e-07
2.44703e-07
-4.59529e-07
1.2012e-07
-4.67042e-07
3.01687e-09
-3.62235e-07
-1.73205e-07
-2.02367e-07
-5.75105e-07
-2.18898e-07
-2.81814e-09
-2.45574e-07
-1.03432e-07
-2.61275e-07
-1.20452e-07
-1.6944e-07
-1.68887e-07
-2.05785e-07
-2.23245e-07
-1.80961e-07
-1.28988e-07
-4.68429e-08
-5.38151e-07
-8.82598e-08
-5.84153e-07
-2.79886e-06
-3.84498e-08
2.3046e-06
-3.39803e-08
1.2231e-06
-1.21559e-07
5.06248e-07
-2.18399e-07
5.22498e-07
-2.93739e-07
4.59566e-07
-3.60344e-07
3.93777e-07
-4.60088e-07
3.44447e-07
-5.35987e-07
1.9602e-07
-4.80616e-07
-5.23548e-08
-2.52385e-07
-4.01436e-07
-1.03974e-07
-7.23516e-07
-1.64738e-07
5.79462e-08
-1.72068e-07
-9.61023e-08
-2.02336e-07
-9.01842e-08
-2.01624e-07
-1.69598e-07
-2.13424e-07
-2.11445e-07
-1.66084e-07
-1.76328e-07
-3.66028e-08
-6.67632e-07
-8.98136e-09
-6.11775e-07
-2.80784e-06
5.62899e-09
2.29898e-06
-6.20183e-08
1.29075e-06
-1.39951e-07
5.84181e-07
-1.46609e-07
5.29156e-07
-2.58434e-07
5.71391e-07
-4.62572e-07
5.97915e-07
-6.24109e-07
5.05983e-07
-6.8611e-07
2.58021e-07
-5.64501e-07
-1.73964e-07
-2.88569e-07
-6.77368e-07
-2.25286e-07
-7.86798e-07
-2.23808e-07
5.64687e-08
-2.47833e-07
-7.20775e-08
-2.96508e-07
-4.15098e-08
-4.14622e-07
-5.14835e-08
-4.16955e-07
-2.09113e-07
-3.23174e-07
-2.70109e-07
-2.66063e-07
-7.24743e-07
-5.77602e-08
-8.20077e-07
-2.8656e-06
8.6384e-08
2.21259e-06
7.5608e-08
1.30152e-06
2.63526e-08
6.33436e-07
-4.62541e-08
6.01763e-07
-2.52313e-07
7.7745e-07
-5.77248e-07
9.2285e-07
-8.17158e-07
7.45893e-07
-7.75626e-07
2.16489e-07
-6.17089e-07
-3.32501e-07
-3.69896e-07
-9.2456e-07
-1.45923e-07
-1.01077e-06
4.12758e-09
-9.35817e-08
2.64092e-08
-9.43592e-08
-1.01278e-07
8.61774e-08
-1.75124e-07
2.23626e-08
-1.27795e-07
-2.56442e-07
-1.02854e-07
-2.95049e-07
-1.5857e-07
-6.69027e-07
-7.88183e-08
-8.99829e-07
-2.94442e-06
1.41073e-08
2.19848e-06
3.27125e-08
1.28292e-06
-3.82657e-08
7.04414e-07
-3.13938e-07
8.77435e-07
-5.77947e-07
1.04146e-06
-7.33659e-07
1.07856e-06
-8.04229e-07
8.16463e-07
-7.52484e-07
1.64744e-07
-6.67212e-07
-4.17773e-07
-5.07002e-07
-1.08477e-06
-3.049e-07
-1.21287e-06
-2.08781e-08
-3.77604e-07
1.21183e-07
-2.3642e-07
1.68078e-07
3.92815e-08
1.84349e-07
6.09236e-09
8.93617e-08
-1.61455e-07
1.46917e-07
-3.52604e-07
2.43139e-08
-5.46424e-07
-2.22438e-08
-8.53272e-07
-2.96666e-06
2.01408e-08
2.17834e-06
3.87732e-08
1.26429e-06
-1.23541e-07
8.66729e-07
-2.274e-07
9.81293e-07
-3.41916e-07
1.15598e-06
-4.2693e-07
1.16358e-06
-3.4804e-07
7.37574e-07
-2.40974e-07
5.76782e-08
-1.3608e-07
-5.22668e-07
-8.90913e-08
-1.13176e-06
-1.4274e-08
-1.28769e-06
2.35574e-07
-6.27452e-07
4.11874e-07
-4.12719e-07
4.92146e-07
-4.09914e-08
4.68133e-07
3.01055e-08
2.89807e-07
1.68713e-08
2.1027e-07
-2.73067e-07
1.17229e-07
-4.53383e-07
-2.81582e-08
-7.07885e-07
-2.99482e-06
5.33779e-08
2.12497e-06
6.69008e-08
1.25076e-06
1.31909e-07
8.0172e-07
9.91238e-08
1.01408e-06
4.3708e-08
1.21139e-06
1.35563e-07
1.07172e-06
2.48039e-07
6.25098e-07
3.26192e-07
-2.0475e-08
4.18523e-07
-6.14999e-07
4.04261e-07
-1.1175e-06
2.17295e-07
-1.10072e-06
1.73376e-07
-5.83532e-07
-1.27696e-07
-1.11648e-07
-2.60485e-07
9.17971e-08
-3.49627e-07
1.19248e-07
-5.0602e-07
1.73264e-07
-3.72084e-07
-4.07002e-07
-2.75068e-07
-5.50399e-07
-2.70635e-08
-9.55889e-07
-3.02188e-06
3.27169e-08
2.09225e-06
1.23139e-07
1.16034e-06
1.53353e-07
7.71506e-07
2.58581e-07
9.08851e-07
5.00762e-07
9.69211e-07
6.23649e-07
9.48833e-07
8.19665e-07
4.29083e-07
9.4033e-07
-1.4114e-07
9.5553e-07
-6.30199e-07
8.47254e-07
-1.00922e-06
5.67283e-07
-8.20754e-07
5.39747e-07
-5.55996e-07
5.46767e-07
-1.18667e-07
1.63799e-07
4.74764e-07
3.04416e-08
2.52606e-07
5.17734e-08
1.51932e-07
7.90972e-09
-3.63139e-07
-1.54952e-07
-3.87538e-07
-1.03454e-07
-1.00739e-06
-3.12534e-06
9.62982e-08
1.99595e-06
2.60685e-07
9.95955e-07
3.80245e-07
6.51946e-07
6.3306e-07
6.56036e-07
9.90482e-07
6.11789e-07
1.18405e-06
7.55265e-07
1.39367e-06
2.19466e-07
1.33947e-06
-8.69396e-08
1.41242e-06
-7.03156e-07
1.24606e-06
-8.4286e-07
8.33408e-07
-4.081e-07
5.79141e-07
-3.01729e-07
6.78578e-07
-2.18104e-07
5.58059e-07
5.95283e-07
6.21082e-07
1.89582e-07
6.49478e-07
1.23537e-07
4.06417e-07
-1.20078e-07
1.53536e-07
-1.34657e-07
2.07219e-07
-1.06107e-06
-2.91812e-06
1.22423e-07
1.87353e-06
2.06071e-07
9.12306e-07
3.62596e-07
4.95421e-07
6.53876e-07
3.64756e-07
8.03834e-07
4.61832e-07
1.14987e-06
4.0923e-07
1.3451e-06
2.42346e-08
1.55386e-06
-2.95704e-07
1.59095e-06
-7.40237e-07
1.2532e-06
-5.05114e-07
4.9129e-07
3.5381e-07
-2.23548e-07
4.13109e-07
-7.16411e-07
2.74759e-07
-3.97033e-07
2.75905e-07
-2.16522e-07
9.07136e-09
-3.57972e-07
2.64987e-07
1.78749e-07
-6.56799e-07
2.89367e-07
-2.45275e-07
9.80337e-09
-7.81505e-07
-2.90831e-06
3.34023e-07
1.5395e-06
3.63958e-07
8.82371e-07
4.34753e-07
4.24626e-07
6.44753e-07
1.54756e-07
1.02978e-06
7.68055e-08
1.36812e-06
7.08881e-08
1.4486e-06
-5.62425e-08
1.67891e-06
-5.26012e-07
1.54686e-06
-6.08196e-07
1.29641e-06
-2.54656e-07
1.26562e-06
3.84596e-07
1.33148e-06
3.47247e-07
1.24338e-06
3.6286e-07
1.43601e-06
8.32797e-08
1.6827e-06
-2.37619e-07
1.5802e-06
3.6748e-07
1.16169e-06
-2.38281e-07
6.89535e-07
2.26875e-07
4.39843e-07
-5.31813e-07
-2.46847e-06
4.84685e-07
1.05482e-06
7.14076e-07
6.52981e-07
8.07984e-07
3.30718e-07
8.07681e-07
1.55059e-07
7.56788e-07
1.27699e-07
6.64743e-07
1.62933e-07
4.27897e-07
1.80603e-07
-2.65045e-07
1.6693e-07
-9.47377e-07
7.41363e-08
-1.25717e-06
5.51326e-08
-9.05635e-07
3.30651e-08
-5.60301e-07
1.91383e-09
-2.30466e-07
3.30244e-08
-6.92953e-08
-7.78911e-08
-2.46246e-07
-6.0668e-08
1.21195e-07
3.84225e-11
-2.46774e-07
1.29689e-07
3.54037e-08
-5.53034e-08
7.07492e-07
-1.2039e-06
-1.76098e-06
1.05482e-06
1.7078e-06
2.03852e-06
2.19358e-06
2.32128e-06
2.48421e-06
2.66481e-06
2.83174e-06
2.90588e-06
2.96101e-06
2.99408e-06
2.99599e-06
3.02901e-06
2.95112e-06
2.89046e-06
2.89049e-06
3.02018e-06
2.96488e-06
1.76098e-06
)
;

boundaryField
{
    movingWall
    {
        type            calculated;
        value           uniform 0;
    }
    fixedWalls
    {
        type            calculated;
        value           uniform 0;
    }
    frontAndBack
    {
        type            empty;
        value           nonuniform 0();
    }
}


// ************************************************************************* //
