/*--------------------------------*- C++ -*----------------------------------*\
| =========                 |                                                 |
| \\      /  F ield         | OpenFOAM: The Open Source CFD Toolbox           |
|  \\    /   O peration     | Version:  5.x                                   |
|   \\  /    A nd           | Web:      www.OpenFOAM.org                      |
|    \\/     M anipulation  |                                                 |
\*---------------------------------------------------------------------------*/
FoamFile
{
    version     2.0;
    format      ascii;
    class       volScalarField;
    location    "7.9";
    object      p;
}
// * * * * * * * * * * * * * * * * * * * * * * * * * * * * * * * * * * * * * //

dimensions      [0 2 -2 0 0 0 0];

internalField   nonuniform List<scalar> 
400
(
3.44411e-12
-0.000354452
-0.000913694
-0.0014048
-0.00164053
-0.00166983
-0.00152635
-0.00137907
-0.00129303
-0.00114592
-0.00102218
-0.00101163
-0.00104969
-0.0010668
-0.00108153
-0.00106177
-0.000985419
-0.000797403
-0.00054748
0.000301804
-0.000235181
-0.00069099
-0.00132174
-0.00173996
-0.00185288
-0.00184004
-0.00160368
-0.00137037
-0.00131321
-0.00117168
-0.00102642
-0.00100985
-0.00106904
-0.00108991
-0.00110444
-0.00110734
-0.00114563
-0.00107605
-0.00097323
-0.000405813
-0.000905009
-0.00131566
-0.00174816
-0.00203915
-0.00209471
-0.00194213
-0.00167672
-0.00143312
-0.00128783
-0.00115628
-0.00106702
-0.00103631
-0.00106805
-0.00106551
-0.00111212
-0.00110282
-0.00114132
-0.00110717
-0.00106428
-0.00078687
-0.00126393
-0.00156802
-0.00186757
-0.00205559
-0.00204409
-0.00187865
-0.00164499
-0.00142487
-0.00129076
-0.00119079
-0.00112503
-0.00108763
-0.00110215
-0.00109253
-0.00111647
-0.00110319
-0.00112578
-0.00109235
-0.00112008
-0.000995292
-0.00122052
-0.00141422
-0.00161766
-0.00174163
-0.00174205
-0.001655
-0.00151139
-0.00136629
-0.00126413
-0.00118414
-0.00114214
-0.00110624
-0.00111707
-0.00109871
-0.00112679
-0.00111243
-0.00114119
-0.00111688
-0.00114832
-0.00107993
-0.00109882
-0.00122999
-0.00137576
-0.00147805
-0.0015054
-0.00146982
-0.00139655
-0.00131089
-0.00124341
-0.00118566
-0.00115915
-0.00112342
-0.00113164
-0.00110772
-0.00113111
-0.00110792
-0.00113847
-0.00110731
-0.00115091
-0.00111649
-0.00103805
-0.00112101
-0.00122085
-0.00130096
-0.00133835
-0.00133491
-0.00130307
-0.00125794
-0.0012179
-0.00117938
-0.00116292
-0.00113496
-0.00114264
-0.00112219
-0.00114086
-0.00112363
-0.00114813
-0.00112903
-0.00116002
-0.00113269
-0.00102847
-0.00108078
-0.00114853
-0.00120765
-0.00124218
-0.00125006
-0.001239
-0.00121475
-0.00119108
-0.00116508
-0.00115683
-0.00113017
-0.00114115
-0.00111455
-0.0011407
-0.00111109
-0.00114903
-0.00111564
-0.00116769
-0.00113651
-0.00103161
-0.00106704
-0.00111457
-0.0011583
-0.00118855
-0.00120275
-0.00120399
-0.00119566
-0.00118463
-0.00116634
-0.00116131
-0.00114338
-0.0011509
-0.00113255
-0.00114985
-0.00112787
-0.00115672
-0.00112683
-0.00117185
-0.00113302
-0.00103508
-0.00106639
-0.00110197
-0.00113536
-0.00115803
-0.00116812
-0.00116978
-0.00116265
-0.00115736
-0.00114316
-0.00114468
-0.00112606
-0.0011391
-0.00111516
-0.00114162
-0.0011096
-0.00115057
-0.00110745
-0.00116024
-0.00111372
-0.00103529
-0.00106801
-0.0010983
-0.00112426
-0.00114392
-0.00115677
-0.00116274
-0.0011635
-0.00116172
-0.00115509
-0.00115515
-0.00114419
-0.00115206
-0.00113713
-0.00115382
-0.00112798
-0.0011589
-0.00111586
-0.00118176
-0.00111556
-0.00103016
-0.00108208
-0.00110352
-0.00112495
-0.0011356
-0.00113964
-0.00114346
-0.00113916
-0.0011392
-0.00112978
-0.00113369
-0.00112026
-0.00112981
-0.00111158
-0.00113282
-0.00110524
-0.00114916
-0.00110306
-0.00115102
-0.00110753
-0.00106652
-0.00111601
-0.00111538
-0.00112631
-0.00113798
-0.00114928
-0.00115176
-0.00115265
-0.00115008
-0.00114785
-0.0011466
-0.00114347
-0.00114836
-0.00113954
-0.00115962
-0.00112737
-0.00115354
-0.0011058
-0.00117714
-0.00108741
-0.00112181
-0.00120917
-0.00112338
-0.00115008
-0.00115073
-0.00114645
-0.00113918
-0.00113055
-0.00112893
-0.00112365
-0.00112593
-0.0011206
-0.0011214
-0.00111235
-0.00110432
-0.0011057
-0.00113768
-0.0010733
-0.00109738
-0.00107544
-0.00116631
-0.00119374
-0.00114514
-0.0011551
-0.00115368
-0.00114097
-0.00113251
-0.00113741
-0.00113456
-0.00114159
-0.00113201
-0.00114958
-0.00112784
-0.0011464
-0.00116629
-0.00114352
-0.00119648
-0.00110885
-0.00119482
-0.00108805
-0.00128009
-0.00120882
-0.00116797
-0.0011556
-0.00116008
-0.00112751
-0.00113934
-0.00113031
-0.00113691
-0.00112986
-0.00113371
-0.00112745
-0.0011323
-0.00115345
-0.00111464
-0.00108787
-0.00109877
-0.00109381
-0.00110296
-0.00106662
-0.00108965
-0.00122847
-0.00117038
-0.00114145
-0.00115083
-0.00112256
-0.00113309
-0.00112173
-0.00113309
-0.00113476
-0.00114518
-0.0011414
-0.00113637
-0.00116984
-0.0011098
-0.00116763
-0.00119431
-0.00110986
-0.00120294
-0.00103442
-0.00104923
-0.00123248
-0.00116839
-0.00113837
-0.00114217
-0.0011192
-0.00112653
-0.00112386
-0.0011281
-0.00112473
-0.00112111
-0.00110745
-0.00111906
-0.00111879
-0.00113746
-0.00120215
-0.00114888
-0.00106607
-0.000999172
-0.000861395
-0.00101534
-0.0011455
-0.00116396
-0.00114548
-0.00112748
-0.00111225
-0.00111119
-0.00111863
-0.00112101
-0.00112684
-0.00114464
-0.00109978
-0.00117693
-0.00108192
-0.0011718
-0.00119429
-0.00111662
-0.00122239
-0.00106986
-0.000601034
-0.00116125
-0.00111082
-0.00109252
-0.00116143
-0.00110366
-0.0011113
-0.00110933
-0.00111524
-0.00111209
-0.00112148
-0.00111391
-0.00109425
-0.00108451
-0.0010422
-0.00111008
-0.00114252
-0.00112338
-0.00089843
-0.000438867
0.000795665
)
;

boundaryField
{
    movingWall
    {
        type            zeroGradient;
    }
    fixedWalls
    {
        type            zeroGradient;
    }
    frontAndBack
    {
        type            empty;
    }
}


// ************************************************************************* //
