/*--------------------------------*- C++ -*----------------------------------*\
| =========                 |                                                 |
| \\      /  F ield         | OpenFOAM: The Open Source CFD Toolbox           |
|  \\    /   O peration     | Version:  5.x                                   |
|   \\  /    A nd           | Web:      www.OpenFOAM.org                      |
|    \\/     M anipulation  |                                                 |
\*---------------------------------------------------------------------------*/
FoamFile
{
    version     2.0;
    format      ascii;
    class       volScalarField;
    location    "19.2";
    object      p;
}
// * * * * * * * * * * * * * * * * * * * * * * * * * * * * * * * * * * * * * //

dimensions      [0 2 -2 0 0 0 0];

internalField   nonuniform List<scalar> 
400
(
8.67563e-10
-0.000745116
-0.00131068
-0.00167657
-0.00186308
-0.00197307
-0.00203206
-0.00207188
-0.00208519
-0.00209123
-0.00209571
-0.0020979
-0.00209044
-0.00205703
-0.00198493
-0.00186882
-0.00168309
-0.00135541
-0.000829353
0.000424471
-0.000792367
-0.00130725
-0.00165855
-0.00185846
-0.00196173
-0.00201885
-0.00205452
-0.00207548
-0.00207878
-0.00208351
-0.00208201
-0.00209991
-0.00210691
-0.00211182
-0.00209256
-0.00203895
-0.00196606
-0.00178201
-0.00159438
-0.000626045
-0.00133305
-0.00169193
-0.00185552
-0.00196057
-0.00200337
-0.00203468
-0.00206147
-0.00208161
-0.00209287
-0.00209527
-0.00209579
-0.00210313
-0.0021108
-0.00208438
-0.00206671
-0.00195345
-0.00198326
-0.00180693
-0.00174103
-0.00132637
-0.00167802
-0.00189121
-0.00196271
-0.00201138
-0.00203147
-0.00205186
-0.00206733
-0.00208419
-0.0020855
-0.00208381
-0.00208822
-0.00209945
-0.00211179
-0.00209259
-0.0021205
-0.00209361
-0.00210242
-0.0019232
-0.00196038
-0.0017159
-0.00186094
-0.00199742
-0.00201254
-0.00203574
-0.00204801
-0.00205679
-0.00207112
-0.0020805
-0.00208871
-0.00208961
-0.00209195
-0.00208949
-0.00211908
-0.00209481
-0.00212289
-0.00210843
-0.00208629
-0.00195188
-0.00195345
-0.0018667
-0.00196387
-0.00201841
-0.00202609
-0.00204252
-0.00204853
-0.00206087
-0.00206833
-0.00208075
-0.00208736
-0.00208789
-0.00210122
-0.00209838
-0.00210509
-0.00207041
-0.00208902
-0.00208865
-0.00207613
-0.00196242
-0.00206039
-0.00194702
-0.00200335
-0.00203927
-0.00204331
-0.00205312
-0.00206066
-0.00206592
-0.00207666
-0.00208122
-0.00209468
-0.00209219
-0.00212072
-0.00209219
-0.0021302
-0.0020436
-0.0020775
-0.00208445
-0.00205677
-0.00200333
-0.00203576
-0.00200941
-0.00203819
-0.00206304
-0.00205677
-0.0020635
-0.0020632
-0.00206681
-0.00206895
-0.002082
-0.0020928
-0.00210901
-0.00211392
-0.00209805
-0.00208402
-0.00210637
-0.00212893
-0.00209736
-0.00210891
-0.00209251
-0.00209866
-0.00210626
-0.00206321
-0.00207841
-0.00206818
-0.0020749
-0.00207543
-0.00207294
-0.0020788
-0.00208424
-0.00210227
-0.00213204
-0.00213024
-0.00212403
-0.00213503
-0.00217594
-0.00222803
-0.00211886
-0.00232977
-0.0021328
-0.00214641
-0.00210111
-0.00208427
-0.00210293
-0.00208768
-0.00209209
-0.00207849
-0.00207443
-0.00207429
-0.00208523
-0.0020912
-0.0020974
-0.0020876
-0.00211096
-0.00208992
-0.00209527
-0.002181
-0.00211532
-0.00213104
-0.00210549
-0.00215244
-0.002053
-0.00210421
-0.0021254
-0.00210132
-0.00211136
-0.00209578
-0.00208271
-0.00208119
-0.0020863
-0.00209636
-0.00212028
-0.00212242
-0.0021552
-0.00215178
-0.00221067
-0.00215982
-0.00210787
-0.00204261
-0.00207649
-0.00214487
-0.00204117
-0.0021046
-0.00211518
-0.00208838
-0.00210489
-0.00209191
-0.00206716
-0.00208697
-0.00209345
-0.00206026
-0.00208732
-0.00211649
-0.00213894
-0.00215096
-0.00221488
-0.00215074
-0.00213571
-0.00211098
-0.00209637
-0.00213952
-0.00209967
-0.00210392
-0.00213969
-0.00209842
-0.002136
-0.00210484
-0.00209834
-0.00211374
-0.00207161
-0.00207259
-0.0021007
-0.00211699
-0.00215764
-0.00215082
-0.00216273
-0.00221338
-0.00209523
-0.00219974
-0.00204721
-0.00217974
-0.00199687
-0.00208904
-0.00213337
-0.00211414
-0.00213756
-0.00209308
-0.00212988
-0.00209571
-0.00203037
-0.00201677
-0.00206435
-0.00211801
-0.00213388
-0.00212486
-0.00218847
-0.00234916
-0.00207351
-0.00213953
-0.00198072
-0.00206306
-0.00186713
-0.00205317
-0.0021209
-0.00213325
-0.00218799
-0.00212622
-0.0021571
-0.00214606
-0.00207849
-0.00208084
-0.00210157
-0.00211859
-0.00216225
-0.00213936
-0.00224686
-0.00238023
-0.00213969
-0.00215664
-0.0018492
-0.00205099
-0.00188403
-0.00197053
-0.00209173
-0.0021777
-0.00212996
-0.00212597
-0.00212253
-0.00212943
-0.00204578
-0.0021335
-0.00210183
-0.00213941
-0.00214497
-0.002109
-0.00211101
-0.00198482
-0.00188066
-0.00214385
-0.00190059
-0.00189598
-0.00192946
-0.00178831
-0.00196176
-0.00211
-0.00216828
-0.0021046
-0.00212218
-0.0020818
-0.00204667
-0.00213732
-0.00216828
-0.00218093
-0.00214815
-0.00210306
-0.00207862
-0.00207458
-0.00204894
-0.00208122
-0.00212464
-0.00210661
-0.00177062
-0.00145369
-0.00177553
-0.00201971
-0.0020948
-0.00210777
-0.00205687
-0.00204816
-0.00211355
-0.00220165
-0.00230362
-0.00234084
-0.00209512
-0.00203199
-0.00205667
-0.00201889
-0.00205082
-0.00185492
-0.00172168
-0.00151822
-0.0012825
-0.000943579
-0.00136643
-0.00175949
-0.0019363
-0.00192774
-0.00185803
-0.00180442
-0.00198371
-0.00245228
-0.00259093
-0.00247341
-0.00206575
-0.00203905
-0.00193633
-0.00195369
-0.00206345
-0.00188266
-0.00201194
-0.00177136
-0.000951412
-0.00037673
-0.000934213
-0.00145507
-0.00181809
-0.0019869
-0.0020075
-0.00197789
-0.00200938
-0.00209141
-0.00213187
-0.00207264
-0.00203925
-0.00203581
-0.0019631
-0.00195099
-0.00189014
-0.00188288
-0.00145574
-0.000616419
0.00133106
)
;

boundaryField
{
    movingWall
    {
        type            zeroGradient;
    }
    fixedWalls
    {
        type            zeroGradient;
    }
    frontAndBack
    {
        type            empty;
    }
}


// ************************************************************************* //
