/*--------------------------------*- C++ -*----------------------------------*\
| =========                 |                                                 |
| \\      /  F ield         | OpenFOAM: The Open Source CFD Toolbox           |
|  \\    /   O peration     | Version:  5.x                                   |
|   \\  /    A nd           | Web:      www.OpenFOAM.org                      |
|    \\/     M anipulation  |                                                 |
\*---------------------------------------------------------------------------*/
FoamFile
{
    version     2.0;
    format      ascii;
    class       surfaceScalarField;
    location    "18.4";
    object      phi;
}
// * * * * * * * * * * * * * * * * * * * * * * * * * * * * * * * * * * * * * //

dimensions      [0 3 -1 0 0 0 0];

internalField   nonuniform List<scalar> 
760
(
-1.40752e-06
1.40752e-06
-2.31835e-06
9.10832e-07
-2.73968e-06
4.2133e-07
-2.94163e-06
2.01947e-07
-3.0019e-06
6.02715e-08
-3.0397e-06
3.7799e-08
-3.03361e-06
-6.08764e-09
-3.05535e-06
2.1743e-08
-3.0382e-06
-1.71553e-08
-3.07442e-06
3.62235e-08
-3.06402e-06
-1.04027e-08
-3.09899e-06
3.49753e-08
-3.09138e-06
-7.61356e-09
-3.11787e-06
2.64942e-08
-3.0849e-06
-3.29765e-08
-3.02135e-06
-6.35483e-08
-2.82852e-06
-1.92831e-07
-2.36359e-06
-4.64932e-07
-1.55833e-06
-8.05256e-07
-1.55833e-06
-7.85537e-07
2.19305e-06
-1.2327e-06
1.358e-06
-1.38313e-06
5.71759e-07
-1.4339e-06
2.52713e-07
-1.44927e-06
7.5644e-08
-1.46316e-06
5.16919e-08
-1.47472e-06
5.46536e-09
-1.49552e-06
4.25434e-08
-1.50142e-06
-1.12532e-08
-1.47378e-06
8.58837e-09
-1.44941e-06
-3.478e-08
-1.42314e-06
8.70751e-09
-1.45775e-06
2.69945e-08
-1.48102e-06
4.97672e-08
-1.54772e-06
3.37198e-08
-1.52261e-06
-8.86545e-08
-1.49421e-06
-2.21235e-07
-1.53264e-06
-4.26499e-07
-1.10672e-06
-1.23117e-06
-2.66505e-06
-3.72155e-07
2.56521e-06
-5.64181e-07
1.55002e-06
-5.71891e-07
5.79469e-07
-5.89746e-07
2.70568e-07
-6.02975e-07
8.88733e-08
-6.20574e-07
6.92913e-08
-6.8307e-07
6.79607e-08
-7.2501e-07
8.44833e-08
-7.81452e-07
4.51888e-08
-7.82109e-07
9.24542e-09
-7.78572e-07
-3.8317e-08
-7.61271e-07
-8.5933e-09
-7.85438e-07
5.11613e-08
-7.82752e-07
4.70817e-08
-7.09042e-07
-3.99908e-08
-6.05297e-07
-1.924e-07
-3.64934e-07
-4.61597e-07
-2.76516e-07
-5.14917e-07
-3.72698e-07
-1.13499e-06
-3.03775e-06
-2.04908e-07
2.77012e-06
-2.55381e-07
1.6005e-06
-2.23617e-07
5.47705e-07
-2.09317e-07
2.56269e-07
-2.2932e-07
1.08876e-07
-2.53756e-07
9.37269e-08
-2.97546e-07
1.1175e-07
-3.19542e-07
1.0648e-07
-3.4718e-07
7.2826e-08
-3.63172e-07
2.52377e-08
-4.06215e-07
4.72612e-09
-4.60898e-07
4.60901e-08
-4.54646e-07
4.49086e-08
-5.18292e-07
1.10728e-07
-6.53688e-07
9.54054e-08
-6.67846e-07
-1.78243e-07
-6.17213e-07
-5.1223e-07
-3.23603e-07
-8.08527e-07
-2.36476e-07
-1.22212e-06
-3.27423e-06
-6.94169e-08
2.83953e-06
-9.91869e-08
1.63027e-06
-7.22888e-08
5.20806e-07
-3.29879e-08
2.16968e-07
-4.95273e-08
1.25416e-07
-8.4763e-08
1.28963e-07
-1.08378e-07
1.35365e-07
-1.28737e-07
1.26839e-07
-1.72531e-07
1.1662e-07
-2.13429e-07
6.61361e-08
-2.2763e-07
1.89263e-08
-1.80751e-07
-7.88079e-10
-9.11311e-08
-4.47117e-08
-1.36095e-07
1.55692e-07
-1.18096e-07
7.74066e-08
-1.27977e-07
-1.68362e-07
-1.48223e-07
-4.91984e-07
-9.2607e-09
-9.4749e-07
-1.73573e-08
-1.21402e-06
-3.29158e-06
-4.82979e-08
2.88783e-06
-8.4919e-08
1.66689e-06
-5.61465e-08
4.92034e-07
-1.40059e-08
1.74827e-07
-5.98196e-08
1.7123e-07
-6.02935e-08
1.29436e-07
-7.20287e-08
1.47101e-07
-9.70674e-08
1.51878e-07
-9.18503e-08
1.11403e-07
-1.16488e-07
9.07742e-08
-2.55505e-07
1.57943e-07
-2.96357e-07
4.00639e-08
-7.52128e-08
-2.65856e-07
-1.63135e-08
9.67932e-08
1.19725e-07
-5.86323e-08
1.67603e-07
-2.16239e-07
-9.51512e-08
-2.2923e-07
-8.24668e-08
-9.60174e-07
-7.00071e-08
-1.22648e-06
-3.36159e-06
-2.34686e-08
2.9113e-06
-3.27281e-08
1.67615e-06
-5.50008e-08
5.14307e-07
-5.43243e-08
1.74151e-07
-2.20172e-08
1.38922e-07
-1.07239e-08
1.18143e-07
-5.86598e-09
1.42243e-07
-3.57333e-08
1.81745e-07
-9.11842e-08
1.66853e-07
-8.21402e-08
8.17302e-08
-6.38205e-08
1.39623e-07
-2.95465e-08
5.78987e-09
5.07719e-08
-3.46174e-07
-2.89152e-08
1.7648e-07
1.16117e-07
-2.03664e-07
2.10699e-07
-3.10821e-07
1.4422e-07
-1.62751e-07
2.24108e-07
-1.04006e-06
2.83366e-08
-1.03071e-06
-3.33325e-06
-1.62804e-09
2.91293e-06
-1.89432e-08
1.69346e-06
-9.49161e-09
5.04855e-07
2.45676e-08
1.40092e-07
8.8427e-09
1.54647e-07
-2.09062e-08
1.47892e-07
-1.10587e-07
2.31924e-07
-1.68885e-07
2.40043e-07
-2.18711e-07
2.1668e-07
-2.98621e-07
1.6164e-07
-2.20804e-07
6.18071e-08
-2.92874e-08
-1.85727e-07
-7.1838e-08
-3.03624e-07
-3.23872e-07
4.28515e-07
-1.32335e-07
-3.95202e-07
-8.49116e-09
-4.34665e-07
2.82699e-08
-1.99512e-07
3.25401e-08
-1.04433e-06
-3.92854e-08
-9.58884e-07
-3.37254e-06
-9.11344e-09
2.92204e-06
-3.79708e-09
1.68815e-06
-1.78451e-08
5.18903e-07
-5.08626e-08
1.73109e-07
-1.32526e-08
1.17037e-07
6.3116e-08
7.15234e-08
9.43564e-08
2.00684e-07
1.74718e-07
1.59681e-07
3.75799e-07
1.55988e-08
3.03202e-07
2.34237e-07
8.36348e-08
2.81374e-07
-7.19045e-08
-3.01878e-08
-2.20329e-07
-1.55199e-07
-3.24369e-07
5.32555e-07
-1.90932e-08
-7.00478e-07
1.55097e-07
-6.08855e-07
-7.97825e-08
3.53679e-08
-4.24326e-08
-1.08168e-06
3.03107e-08
-1.03163e-06
-3.34223e-06
1.14381e-08
2.9106e-06
9.43979e-09
1.69015e-06
-6.80928e-09
5.35152e-07
3.75428e-08
1.28757e-07
7.46629e-08
7.99173e-08
9.33882e-08
5.27982e-08
1.76329e-07
1.17743e-07
1.83517e-07
1.52492e-07
1.0858e-07
9.05358e-08
-7.05617e-08
4.13379e-07
-1.55428e-07
3.6624e-07
-1.53465e-07
-3.21509e-08
-2.3138e-07
-7.72835e-08
-3.73656e-07
6.7483e-07
-3.94352e-07
-6.79783e-07
-3.45741e-07
-6.57465e-07
-2.65879e-07
-4.44948e-08
-2.60317e-07
-1.08724e-06
-5.2935e-08
-1.23901e-06
-3.39516e-06
-1.19565e-08
2.92256e-06
3.1184e-08
1.647e-06
8.25781e-08
4.83758e-07
1.5186e-07
5.94753e-08
1.70356e-07
6.14212e-08
2.34776e-07
-1.16218e-08
3.131e-07
3.94185e-08
1.14942e-07
3.50651e-07
-1.26986e-07
3.32464e-07
-1.98932e-07
4.85325e-07
-1.43116e-07
3.10424e-07
-6.13193e-08
-1.13948e-07
5.594e-08
-1.94543e-07
3.88548e-08
6.91916e-07
-1.06928e-07
-5.34e-07
-1.80464e-07
-5.83929e-07
7.61168e-08
-3.01076e-07
5.91223e-08
-1.07025e-06
-2.89509e-08
-1.15094e-06
-3.42411e-06
3.69109e-08
2.88565e-06
5.35589e-09
1.67856e-06
1.04943e-07
3.84171e-07
1.34583e-07
2.9835e-08
2.58494e-08
1.70155e-07
7.1849e-08
-5.76214e-08
2.47265e-07
-1.35997e-07
2.50415e-07
3.47501e-07
1.27224e-07
4.55655e-07
5.40758e-08
5.58473e-07
1.09866e-08
3.53513e-07
-1.46966e-07
4.40049e-08
-2.29684e-07
-1.11825e-07
2.57092e-08
4.36523e-07
7.57344e-08
-5.84025e-07
-1.00639e-07
-4.07555e-07
3.49222e-07
-7.50937e-07
3.48084e-07
-1.06911e-06
5.51402e-08
-8.57992e-07
-3.36897e-06
-1.26246e-08
2.89827e-06
5.64988e-08
1.60944e-06
-1.71125e-08
4.57783e-07
-1.48395e-07
1.61118e-07
-1.0769e-07
1.29449e-07
-1.17202e-07
-4.81094e-08
-1.02575e-07
-1.50624e-07
1.05031e-07
1.39894e-07
2.68016e-07
2.9267e-07
2.47572e-07
5.78918e-07
1.15961e-07
4.85124e-07
1.61667e-08
1.43799e-07
-1.84086e-07
8.8428e-08
7.93382e-09
2.44503e-07
2.16211e-07
-7.92302e-07
1.53893e-07
-3.45238e-07
1.44967e-07
-7.42011e-07
-6.02804e-08
-8.63865e-07
2.08461e-08
-9.39119e-07
-3.34813e-06
9.05209e-08
2.80775e-06
8.89965e-08
1.61096e-06
8.10155e-08
4.65764e-07
3.43713e-08
2.07762e-07
-2.01455e-09
1.65835e-07
-8.85701e-08
3.84462e-08
-9.98183e-08
-1.39376e-07
8.43013e-08
-4.42256e-08
1.52497e-07
2.24474e-07
3.71464e-07
3.5995e-07
3.55679e-07
5.00909e-07
1.63106e-07
3.36373e-07
5.39224e-08
1.97611e-07
2.04961e-07
9.34639e-08
1.88443e-07
-7.75784e-07
2.92399e-07
-4.49194e-07
2.44514e-07
-6.94126e-07
-6.97947e-08
-5.49557e-07
1.77146e-08
-1.02663e-06
-3.33041e-06
8.97631e-08
2.71799e-06
1.62783e-07
1.53794e-06
7.96253e-08
5.48921e-07
2.79233e-07
8.15456e-09
3.1212e-07
1.32948e-07
3.41204e-07
9.36216e-09
6.19471e-07
-4.17643e-07
3.70589e-07
2.04657e-07
4.60037e-07
1.35026e-07
7.27033e-07
9.29546e-08
8.30266e-07
3.97675e-07
8.0864e-07
3.57999e-07
8.74688e-07
1.31564e-07
9.25682e-07
4.24696e-08
9.38325e-07
-7.88427e-07
9.72676e-07
-4.83545e-07
4.17771e-07
-1.39221e-07
1.05278e-07
-2.37063e-07
1.93574e-08
-9.40707e-07
-3.31106e-06
1.87766e-07
2.53022e-06
3.53558e-07
1.37215e-06
3.61298e-07
5.41181e-07
2.29114e-07
1.40338e-07
3.76088e-07
-1.40256e-08
5.69641e-07
-1.84191e-07
5.31349e-07
-3.79351e-07
5.51545e-07
1.84461e-07
6.82922e-07
3.64907e-09
8.40691e-07
-6.48147e-08
8.90029e-07
3.48337e-07
9.76812e-07
2.71215e-07
1.05156e-06
5.68126e-08
9.59208e-07
1.34825e-07
6.19279e-07
-4.48498e-07
1.20809e-08
1.23653e-07
-1.28381e-07
1.24098e-09
2.98449e-07
-6.63893e-07
1.78691e-07
-8.20949e-07
-3.13237e-06
2.82445e-07
2.24778e-06
3.20384e-07
1.33421e-06
4.27328e-07
4.34237e-07
4.19512e-07
1.48154e-07
3.25005e-07
8.04818e-08
4.31822e-07
-2.91008e-07
3.36646e-07
-2.84175e-07
8.66122e-07
-3.45015e-07
1.1902e-06
-3.20434e-07
1.16379e-06
-3.83971e-08
1.06887e-06
4.43259e-07
1.00128e-06
3.38804e-07
1.01523e-06
4.28624e-08
7.89398e-07
3.60654e-07
4.01614e-07
-6.07129e-08
6.07062e-08
4.6456e-07
5.31449e-07
-4.69501e-07
2.04847e-07
-3.37291e-07
-3.77226e-08
-5.7838e-07
-3.17009e-06
4.46429e-07
1.80135e-06
7.70974e-07
1.00967e-06
7.28619e-07
4.76591e-07
7.7571e-07
1.01064e-07
7.9405e-07
6.21415e-08
8.2056e-07
-3.17518e-07
9.12514e-07
-3.76129e-07
9.84418e-07
-4.16919e-07
9.68599e-07
-3.04615e-07
9.418e-07
-1.1598e-08
1.07385e-06
3.11209e-07
1.11167e-06
3.00982e-07
1.16135e-06
-6.81369e-09
1.09062e-06
4.31381e-07
1.22122e-06
-1.91308e-07
1.06821e-06
6.1757e-07
8.61503e-07
-2.62797e-07
2.44214e-07
2.79998e-07
3.92093e-07
-7.26258e-07
-2.778e-06
6.09323e-07
1.19203e-06
9.29635e-07
6.89355e-07
1.02611e-06
3.80117e-07
9.42045e-07
1.85127e-07
8.33606e-07
1.7058e-07
4.32695e-07
8.33941e-08
-7.80702e-08
1.34635e-07
-6.66869e-07
1.71881e-07
-1.05759e-06
8.61085e-08
-1.08349e-06
1.42988e-08
-8.24575e-07
5.22938e-08
-5.65937e-07
4.23434e-08
-5.83077e-07
1.03267e-08
-2.76506e-07
1.2481e-07
-3.5546e-07
-1.12354e-07
5.10546e-08
2.11056e-07
-5.51733e-08
-1.56569e-07
3.07327e-07
-8.2503e-08
7.89881e-07
-1.20881e-06
-1.98811e-06
1.19203e-06
1.88138e-06
2.2615e-06
2.44663e-06
2.61721e-06
2.7006e-06
2.83524e-06
3.00712e-06
3.09322e-06
3.10752e-06
3.15982e-06
3.20216e-06
3.21249e-06
3.3373e-06
3.22494e-06
3.436e-06
3.27943e-06
3.19693e-06
1.98811e-06
)
;

boundaryField
{
    movingWall
    {
        type            calculated;
        value           uniform 0;
    }
    fixedWalls
    {
        type            calculated;
        value           uniform 0;
    }
    frontAndBack
    {
        type            empty;
        value           nonuniform 0();
    }
}


// ************************************************************************* //
