/*--------------------------------*- C++ -*----------------------------------*\
| =========                 |                                                 |
| \\      /  F ield         | OpenFOAM: The Open Source CFD Toolbox           |
|  \\    /   O peration     | Version:  5.x                                   |
|   \\  /    A nd           | Web:      www.OpenFOAM.org                      |
|    \\/     M anipulation  |                                                 |
\*---------------------------------------------------------------------------*/
FoamFile
{
    version     2.0;
    format      ascii;
    class       volScalarField;
    location    "3.9";
    object      p;
}
// * * * * * * * * * * * * * * * * * * * * * * * * * * * * * * * * * * * * * //

dimensions      [0 2 -2 0 0 0 0];

internalField   nonuniform List<scalar> 
400
(
-1.81148e-10
3.98264e-07
1.2971e-06
2.72471e-06
4.781e-06
7.60059e-06
1.13762e-05
1.6376e-05
2.29727e-05
3.16866e-05
4.32474e-05
5.86862e-05
7.94656e-05
0.000107654
0.00014612
0.000198605
0.000269426
0.000361717
0.000473918
0.000603039
-6.1347e-07
-2.49057e-07
5.77718e-07
1.88983e-06
3.7775e-06
6.36041e-06
9.80934e-06
1.43608e-05
2.03427e-05
2.82126e-05
3.86151e-05
5.24714e-05
7.11157e-05
9.64997e-05
0.000131492
0.000180321
0.000248722
0.000342148
0.000467249
0.0006457
-1.89384e-06
-1.59582e-06
-9.08982e-07
1.79813e-07
1.74217e-06
3.86939e-06
6.69034e-06
1.0381e-05
1.51831e-05
2.14323e-05
2.96032e-05
4.03821e-05
5.47913e-05
7.44057e-05
0.00010174
0.000141162
0.000200243
0.000285689
0.000423333
0.000703624
-3.74342e-06
-3.53944e-06
-3.05032e-06
-2.27578e-06
-1.16927e-06
3.21953e-07
2.26931e-06
4.76501e-06
7.92985e-06
1.19254e-05
1.69743e-05
2.33971e-05
3.16818e-05
4.2609e-05
5.7432e-05
7.88134e-05
0.000116333
0.000181251
0.000215327
0.000604174
-6.04945e-06
-5.96077e-06
-5.71249e-06
-5.31813e-06
-4.75927e-06
-4.02713e-06
-3.11672e-06
-2.03386e-06
-8.01245e-07
5.31848e-07
1.8743e-06
3.06823e-06
3.8497e-06
3.76362e-06
1.66811e-06
-6.02875e-06
-2.09239e-05
-2.56549e-05
-0.000317683
0.000151358
-8.66793e-06
-8.70937e-06
-8.72911e-06
-8.75277e-06
-8.7889e-06
-8.87194e-06
-9.06388e-06
-9.47025e-06
-1.02607e-05
-1.17016e-05
-1.42105e-05
-1.8451e-05
-2.5502e-05
-3.71717e-05
-5.67483e-05
-9.3043e-05
-0.000172985
-0.000165968
-0.000596257
-0.000326564
-1.14369e-05
-1.16201e-05
-1.19205e-05
-1.23736e-05
-1.30073e-05
-1.38928e-05
-1.51502e-05
-1.69737e-05
-1.96627e-05
-2.36737e-05
-2.97044e-05
-3.88375e-05
-5.27613e-05
-7.42372e-05
-0.000107469
-0.00014987
-0.00026574
-0.000279353
-0.000438367
-0.000461152
-1.41835e-05
-1.4521e-05
-1.51044e-05
-1.59754e-05
-1.71718e-05
-1.87844e-05
-2.09775e-05
-2.40074e-05
-2.8265e-05
-3.43319e-05
-4.30692e-05
-5.57904e-05
-7.45037e-05
-0.000101419
-0.000146867
-0.000187427
-0.000321299
-0.000393607
-0.000491722
-0.000550399
-1.67226e-05
-1.72643e-05
-1.81254e-05
-1.94146e-05
-2.11085e-05
-2.333e-05
-2.62529e-05
-3.01781e-05
-3.55443e-05
-4.29956e-05
-5.34406e-05
-6.81021e-05
-9.02363e-05
-0.00011438
-0.000173998
-0.000205055
-0.00034677
-0.000438291
-0.00060679
-0.00060618
-1.88617e-05
-1.96738e-05
-2.07878e-05
-2.24808e-05
-2.45926e-05
-2.72659e-05
-3.06745e-05
-3.51158e-05
-4.1031e-05
-4.90202e-05
-6.0094e-05
-7.36806e-05
-9.96623e-05
-0.000114547
-0.000180809
-0.000199023
-0.00032009
-0.0003888
-0.000477677
-0.000462543
-2.0333e-05
-2.1826e-05
-2.30882e-05
-2.5628e-05
-2.79278e-05
-3.10243e-05
-3.45063e-05
-3.90446e-05
-4.49193e-05
-5.26058e-05
-6.40485e-05
-7.32683e-05
-0.000102963
-0.000109298
-0.000168519
-0.000185792
-0.000269192
-0.000304605
-0.000339624
-0.000319464
-2.11074e-05
-2.31483e-05
-2.46785e-05
-2.72033e-05
-2.98635e-05
-3.28433e-05
-3.64865e-05
-4.08457e-05
-4.65375e-05
-5.26649e-05
-6.46635e-05
-6.95275e-05
-9.58695e-05
-0.000101799
-0.000144712
-0.000154823
-0.000219349
-0.000232114
-0.000303571
-0.000265497
-2.00908e-05
-2.37149e-05
-2.6421e-05
-3.08725e-05
-3.35329e-05
-3.77255e-05
-4.00851e-05
-4.41135e-05
-4.84879e-05
-5.26948e-05
-6.29834e-05
-6.6803e-05
-8.65884e-05
-8.95557e-05
-0.000121757
-0.000123505
-0.000169193
-0.000161938
-0.000216975
-0.000153218
-1.86217e-05
-2.80968e-05
-2.77869e-05
-3.14843e-05
-3.37742e-05
-3.5823e-05
-3.84884e-05
-4.10536e-05
-4.5262e-05
-4.85299e-05
-5.61115e-05
-5.91716e-05
-7.31348e-05
-7.14038e-05
-9.57753e-05
-7.77998e-05
-0.000117327
-5.74033e-05
-9.45381e-05
-2.20171e-05
-1.01653e-05
-1.98241e-05
-2.74258e-05
-3.63684e-05
-4.01111e-05
-4.45631e-05
-4.42739e-05
-4.71833e-05
-4.79798e-05
-5.0008e-05
-5.41114e-05
-5.47243e-05
-6.44697e-05
-5.9193e-05
-7.65771e-05
-5.90134e-05
-8.30828e-05
-3.44329e-05
-7.21454e-05
3.20176e-05
-7.49242e-06
-4.5764e-05
-3.48026e-05
-4.01873e-05
-3.98623e-05
-3.85982e-05
-3.81843e-05
-3.85363e-05
-3.97527e-05
-4.07368e-05
-4.35699e-05
-4.37709e-05
-4.98041e-05
-4.1649e-05
-5.25479e-05
-2.14776e-05
-4.02957e-05
1.12038e-05
-4.71634e-05
7.1421e-05
1.38224e-05
-3.58041e-05
-3.1701e-05
-5.44918e-05
-5.47446e-05
-5.57036e-05
-4.79181e-05
-4.91107e-05
-4.71834e-05
-4.57872e-05
-4.51451e-05
-4.50293e-05
-4.86915e-05
-4.1157e-05
-4.97166e-05
-3.14156e-05
-5.74421e-05
1.55475e-05
-5.14771e-05
0.000136225
-1.76914e-05
-0.000155374
-7.63558e-05
-5.49779e-05
-4.86417e-05
-4.09723e-05
-3.46362e-05
-3.40713e-05
-3.06941e-05
-3.05076e-05
-2.93563e-05
-2.97133e-05
-2.97314e-05
-2.60307e-05
-3.10079e-05
-1.15952e-05
2.99939e-05
3.25374e-05
0.000130214
0.000302252
3.46905e-05
-9.80862e-05
-6.53062e-05
-4.45441e-05
-3.98631e-05
-4.29445e-05
-3.42661e-05
-4.42047e-05
-4.79385e-05
-4.55183e-05
-3.42986e-05
-4.54261e-05
-4.40448e-05
-3.40005e-05
-3.87404e-05
-7.16794e-05
-3.08815e-05
2.46923e-05
-1.81556e-05
0.000586207
-9.99804e-05
-6.7486e-05
-7.81632e-06
-3.8068e-05
-2.25558e-05
-2.29206e-05
-8.97257e-06
-1.57269e-05
-2.97185e-05
-1.65608e-05
-1.85798e-05
-2.62472e-05
-1.6879e-05
-9.58092e-06
1.49123e-06
1.81154e-05
2.13561e-05
0.000301961
0.00070577
0.00195416
)
;

boundaryField
{
    movingWall
    {
        type            zeroGradient;
    }
    fixedWalls
    {
        type            zeroGradient;
    }
    frontAndBack
    {
        type            empty;
    }
}


// ************************************************************************* //
