/*--------------------------------*- C++ -*----------------------------------*\
| =========                 |                                                 |
| \\      /  F ield         | OpenFOAM: The Open Source CFD Toolbox           |
|  \\    /   O peration     | Version:  5.x                                   |
|   \\  /    A nd           | Web:      www.OpenFOAM.org                      |
|    \\/     M anipulation  |                                                 |
\*---------------------------------------------------------------------------*/
FoamFile
{
    version     2.0;
    format      ascii;
    class       surfaceScalarField;
    location    "3.9";
    object      phi;
}
// * * * * * * * * * * * * * * * * * * * * * * * * * * * * * * * * * * * * * //

dimensions      [0 3 -1 0 0 0 0];

internalField   nonuniform List<scalar> 
760
(
-1.56783e-08
1.56784e-08
-3.23307e-08
1.66524e-08
-4.9534e-08
1.72033e-08
-6.75824e-08
1.80484e-08
-8.67743e-08
1.91919e-08
-1.07424e-07
2.06494e-08
-1.2986e-07
2.24367e-08
-1.54425e-07
2.45644e-08
-1.8145e-07
2.70248e-08
-2.11219e-07
2.9769e-08
-2.43886e-07
3.26675e-08
-2.79325e-07
3.54386e-08
-3.16853e-07
3.7528e-08
-3.54758e-07
3.79048e-08
-3.89476e-07
3.47184e-08
-4.14268e-07
2.47919e-08
-4.17856e-07
3.58795e-09
-3.79293e-07
-3.85631e-08
-2.66494e-07
-1.12799e-07
-2.66494e-07
-1.62607e-08
3.1939e-08
-3.35154e-08
3.3907e-08
-5.13076e-08
3.49955e-08
-6.99221e-08
3.66629e-08
-8.96479e-08
3.89177e-08
-1.10792e-07
4.17932e-08
-1.33681e-07
4.5326e-08
-1.58664e-07
4.95475e-08
-1.86101e-07
5.44619e-08
-2.16341e-07
6.00092e-08
-2.49671e-07
6.59968e-08
-2.86212e-07
7.19801e-08
-3.25737e-07
7.70531e-08
-3.67329e-07
7.9497e-08
-4.08753e-07
7.61422e-08
-4.45119e-07
6.11578e-08
-4.66492e-07
2.49606e-08
-4.55268e-07
-4.97867e-08
-3.6733e-07
-2.00737e-07
-6.33823e-07
-1.57558e-08
4.76949e-08
-3.25047e-08
5.06559e-08
-4.97767e-08
5.22676e-08
-6.78474e-08
5.47336e-08
-8.69982e-08
5.80685e-08
-1.07533e-07
6.2328e-08
-1.29788e-07
6.7581e-08
-1.54142e-07
7.39015e-08
-1.81026e-07
8.13461e-08
-2.10931e-07
8.99144e-08
-2.44414e-07
9.9479e-08
-2.82093e-07
1.09659e-07
-3.24635e-07
1.19596e-07
-3.72695e-07
1.27557e-07
-4.26807e-07
1.30254e-07
-4.86647e-07
1.20998e-07
-5.47023e-07
8.53362e-08
-6.02243e-07
5.4331e-09
-6.03437e-07
-1.99543e-07
-1.23726e-06
-1.49483e-08
6.26432e-08
-3.08876e-08
6.65951e-08
-4.73317e-08
6.87117e-08
-6.45406e-08
7.19425e-08
-8.27794e-08
7.63073e-08
-1.0234e-07
8.18887e-08
-1.23559e-07
8.88e-08
-1.46839e-07
9.71816e-08
-1.72679e-07
1.07186e-07
-2.01719e-07
1.18954e-07
-2.34804e-07
1.32564e-07
-2.73104e-07
1.4796e-07
-3.18311e-07
1.64802e-07
-3.72995e-07
1.82241e-07
-4.41502e-07
1.98761e-07
-5.32095e-07
2.1159e-07
-6.53055e-07
2.06296e-07
-7.86532e-07
1.3891e-07
-8.78661e-07
-1.07414e-07
-2.11592e-06
-1.3883e-08
7.65263e-08
-2.8759e-08
8.14711e-08
-4.41189e-08
8.40716e-08
-6.01978e-08
8.80213e-08
-7.72308e-08
9.33403e-08
-9.54808e-08
1.00139e-07
-1.15263e-07
1.08582e-07
-1.36975e-07
1.18894e-07
-1.61144e-07
1.31355e-07
-1.88491e-07
1.463e-07
-2.20044e-07
1.64117e-07
-2.5734e-07
1.85255e-07
-3.02792e-07
2.10255e-07
-3.60378e-07
2.39826e-07
-4.36917e-07
2.75301e-07
-5.45813e-07
3.20486e-07
-7.08131e-07
3.68614e-07
-8.10654e-07
2.41433e-07
-7.22954e-07
-1.95114e-07
-2.83888e-06
-1.25682e-08
8.90945e-08
-2.6145e-08
9.50479e-08
-4.01893e-08
9.81159e-08
-5.48996e-08
1.02732e-07
-7.04616e-08
1.08902e-07
-8.70842e-08
1.16761e-07
-1.05029e-07
1.26526e-07
-1.24645e-07
1.38511e-07
-1.46421e-07
1.53131e-07
-1.71051e-07
1.7093e-07
-1.99551e-07
1.92618e-07
-2.33459e-07
2.19163e-07
-2.75142e-07
2.51938e-07
-3.28396e-07
2.93081e-07
-3.97743e-07
3.44648e-07
-4.80699e-07
4.03442e-07
-5.90755e-07
4.7867e-07
-6.11795e-07
2.62473e-07
-2.22439e-07
-5.8447e-07
-3.06131e-06
-1.1e-08
1.00095e-07
-2.30646e-08
1.07112e-07
-3.55949e-08
1.10646e-07
-4.87463e-08
1.15883e-07
-6.26238e-08
1.2278e-07
-7.7352e-08
1.3149e-07
-9.31005e-08
1.42275e-07
-1.10119e-07
1.55529e-07
-1.28772e-07
1.71784e-07
-1.49585e-07
1.91743e-07
-1.73314e-07
2.16347e-07
-2.01081e-07
2.46929e-07
-2.3447e-07
2.85327e-07
-2.75813e-07
3.34424e-07
-3.31033e-07
3.99867e-07
-3.81503e-07
4.53913e-07
-4.28444e-07
5.25611e-07
-4.35098e-07
2.69127e-07
-1.05421e-07
-9.14146e-07
-3.16674e-06
-9.16244e-09
1.09257e-07
-1.95262e-08
1.17476e-07
-3.03917e-08
1.21512e-07
-4.18579e-08
1.27349e-07
-5.39217e-08
1.34844e-07
-6.65791e-08
1.44147e-07
-7.98806e-08
1.55576e-07
-9.39391e-08
1.69587e-07
-1.08964e-07
1.86809e-07
-1.25273e-07
2.08052e-07
-1.43287e-07
2.34361e-07
-1.63526e-07
2.67168e-07
-1.87053e-07
3.08854e-07
-2.0922e-07
3.56592e-07
-2.46696e-07
4.37343e-07
-2.7023e-07
4.77447e-07
-2.90689e-07
5.4607e-07
-2.6398e-07
2.42417e-07
-1.61377e-07
-1.01675e-06
-3.32811e-06
-6.9178e-09
1.16175e-07
-1.55013e-08
1.2606e-07
-2.45465e-08
1.30557e-07
-3.43891e-08
1.37192e-07
-4.46135e-08
1.45068e-07
-5.51594e-08
1.54693e-07
-6.58617e-08
1.66279e-07
-7.66807e-08
1.80406e-07
-8.75924e-08
1.9772e-07
-9.85819e-08
2.19041e-07
-1.09626e-07
2.45405e-07
-1.19692e-07
2.77234e-07
-1.32688e-07
3.2185e-07
-1.33716e-07
3.5762e-07
-1.49252e-07
4.52879e-07
-1.41302e-07
4.69497e-07
-1.2404e-07
5.28808e-07
-4.99898e-08
1.68367e-07
3.9414e-08
-1.10615e-06
-3.2887e-06
-4.34947e-09
1.20524e-07
-1.10338e-08
1.32744e-07
-1.82077e-08
1.37731e-07
-2.64516e-08
1.45435e-07
-3.49208e-08
1.53537e-07
-4.34174e-08
1.63189e-07
-5.16039e-08
1.74465e-07
-5.92829e-08
1.88086e-07
-6.63323e-08
2.0477e-07
-7.24845e-08
2.25194e-07
-7.82842e-08
2.51205e-07
-7.82505e-08
2.772e-07
-8.41262e-08
3.27726e-07
-7.35393e-08
3.47033e-07
-6.13213e-08
4.40661e-07
-3.60731e-08
4.44249e-07
2.84615e-08
4.64274e-07
9.59386e-08
1.0089e-07
1.66502e-07
-1.17672e-06
-3.1222e-06
-1.0189e-10
1.20626e-07
-4.88081e-09
1.37523e-07
-1.00917e-08
1.42942e-07
-1.83953e-08
1.53739e-07
-2.52851e-08
1.60427e-07
-3.26256e-08
1.7053e-07
-3.82016e-08
1.80041e-07
-4.25147e-08
1.92399e-07
-4.51878e-08
2.07443e-07
-4.50383e-08
2.25044e-07
-4.41936e-08
2.5036e-07
-3.61841e-08
2.69191e-07
-2.5334e-08
3.16876e-07
-1.17622e-08
3.33461e-07
2.32299e-08
4.05669e-07
5.35585e-08
4.1392e-07
1.0747e-07
4.10362e-07
1.3184e-07
7.65203e-08
6.53074e-08
-1.11018e-06
-3.05689e-06
2.90706e-09
1.17719e-07
-2.56668e-10
1.40687e-07
-5.00226e-09
1.47687e-07
-1.00735e-08
1.5881e-07
-1.53005e-08
1.65654e-07
-2.00061e-08
1.75236e-07
-2.37665e-08
1.83802e-07
-2.59077e-08
1.9454e-07
-2.64598e-08
2.07995e-07
-2.35397e-08
2.22124e-07
-1.91548e-08
2.45975e-07
-1.27343e-08
2.6277e-07
5.48323e-09
2.98658e-07
1.80838e-08
3.2086e-07
5.82093e-08
3.65544e-07
9.39193e-08
3.7821e-07
1.52784e-07
3.51498e-07
1.84052e-07
4.52522e-08
8.22984e-08
-1.00843e-06
-2.97459e-06
2.06959e-08
9.70232e-08
1.80004e-08
1.43382e-07
1.36852e-08
1.52002e-07
1.22143e-09
1.71274e-07
-7.97273e-09
1.74848e-07
-1.57129e-08
1.82976e-07
-1.77161e-08
1.85805e-07
-1.69329e-08
1.93757e-07
-1.16217e-08
2.02684e-07
-3.98362e-09
2.14486e-07
1.07879e-08
2.31204e-07
2.55849e-08
2.47973e-07
5.1918e-08
2.72325e-07
8.0574e-08
2.92204e-07
1.22369e-07
3.23748e-07
1.6939e-07
3.31189e-07
2.19395e-07
3.01492e-07
2.12775e-07
5.18721e-08
1.60233e-07
-9.55887e-07
-2.81436e-06
1.74784e-08
7.95448e-08
7.21101e-09
1.5365e-07
3.07612e-09
1.56137e-07
3.13061e-09
1.7122e-07
1.30527e-09
1.76674e-07
3.34417e-10
1.83947e-07
1.33164e-09
1.84808e-07
2.77072e-09
1.92318e-07
7.80408e-09
1.9765e-07
1.38919e-08
2.08398e-07
2.44509e-08
2.20645e-07
3.54101e-08
2.37014e-07
5.43929e-08
2.53343e-07
6.8936e-08
2.77661e-07
1.07238e-07
2.85446e-07
1.24868e-07
3.1356e-07
1.92919e-07
2.33441e-07
2.1406e-07
3.0732e-08
1.09416e-07
-8.51243e-07
-2.70494e-06
8.97111e-08
-1.01664e-08
8.66825e-08
1.56678e-07
5.99204e-08
1.82899e-07
1.86e-08
2.1254e-07
-5.34311e-09
2.00617e-07
-1.78996e-08
1.96503e-07
-1.72143e-08
1.84122e-07
-1.12329e-08
1.86336e-07
2.1194e-09
1.84298e-07
1.70701e-08
1.93447e-07
3.86289e-08
1.99086e-07
6.03863e-08
2.15257e-07
9.23505e-08
2.21378e-07
1.24932e-07
2.4508e-07
1.72434e-07
2.37944e-07
2.10332e-07
2.75662e-07
2.45882e-07
1.97891e-07
1.52626e-07
1.23988e-07
2.04256e-08
-7.19043e-07
-2.68452e-06
1.13628e-07
-1.23794e-07
5.36576e-08
2.16649e-07
5.58292e-08
1.80728e-07
5.55917e-08
2.12778e-07
4.42813e-08
2.11927e-07
3.63468e-08
2.04438e-07
3.79266e-08
1.82542e-07
4.02345e-08
1.84028e-07
4.70268e-08
1.77506e-07
5.73871e-08
1.83087e-07
6.91161e-08
1.87357e-07
8.34474e-08
2.00925e-07
9.94221e-08
2.05404e-07
1.03736e-07
2.40766e-07
1.22022e-07
2.19657e-07
9.19587e-08
3.05726e-07
1.94326e-07
9.55239e-08
1.78833e-07
1.39481e-07
8.99425e-08
-6.30153e-07
-2.59458e-06
1.85488e-07
-3.09283e-07
5.23239e-09
3.96905e-07
-1.49157e-07
3.35117e-07
-1.98176e-07
2.61797e-07
-1.96473e-07
2.10224e-07
-1.70057e-07
1.78022e-07
-1.3139e-07
1.43875e-07
-1.0554e-07
1.58178e-07
-7.13025e-08
1.43269e-07
-4.10913e-08
1.52876e-07
-8.87694e-09
1.55143e-07
1.81204e-08
1.73928e-07
5.35728e-08
1.69951e-07
8.63348e-08
2.08004e-07
1.55028e-07
1.50964e-07
1.40396e-07
3.20357e-07
2.42546e-07
-6.62609e-09
1.60377e-07
2.2165e-07
8.27262e-08
-5.52502e-07
-2.51185e-06
1.075e-07
-4.16783e-07
4.01873e-07
1.02532e-07
4.59513e-07
2.77477e-07
4.69969e-07
2.51341e-07
4.92621e-07
1.87572e-07
4.62558e-07
2.08084e-07
4.66011e-07
1.40423e-07
4.21918e-07
2.02271e-07
4.08699e-07
1.56487e-07
3.7857e-07
1.83005e-07
3.68671e-07
1.65041e-07
3.53215e-07
1.89384e-07
3.4943e-07
1.73737e-07
3.57824e-07
1.9961e-07
3.45984e-07
1.62804e-07
2.51147e-07
4.15194e-07
2.74238e-07
-2.97175e-08
1.61509e-07
3.34378e-07
2.49455e-07
-6.40447e-07
-2.26239e-06
-8.14187e-07
3.97404e-07
-9.4345e-07
2.31795e-07
-8.81059e-07
2.15086e-07
-8.284e-07
1.98682e-07
-8.12223e-07
1.71395e-07
-7.7538e-07
1.71241e-07
-7.54155e-07
1.19198e-07
-7.10802e-07
1.58918e-07
-6.85998e-07
1.31683e-07
-6.14823e-07
1.1183e-07
-5.65648e-07
1.15866e-07
-5.00683e-07
1.24419e-07
-4.2643e-07
9.94844e-08
-3.22768e-07
9.59476e-08
-2.61892e-07
1.01929e-07
-2.6449e-10
1.53567e-07
7.88147e-08
-1.08797e-07
3.9327e-07
1.99227e-08
6.55806e-07
-9.02982e-07
-1.60659e-06
3.97404e-07
6.29199e-07
8.44285e-07
1.04297e-06
1.21436e-06
1.3856e-06
1.5048e-06
1.66372e-06
1.7954e-06
1.90723e-06
2.0231e-06
2.14752e-06
2.247e-06
2.34295e-06
2.44488e-06
2.59844e-06
2.48965e-06
2.50957e-06
1.60659e-06
)
;

boundaryField
{
    movingWall
    {
        type            calculated;
        value           uniform 0;
    }
    fixedWalls
    {
        type            calculated;
        value           uniform 0;
    }
    frontAndBack
    {
        type            empty;
        value           nonuniform 0();
    }
}


// ************************************************************************* //
