/*--------------------------------*- C++ -*----------------------------------*\
| =========                 |                                                 |
| \\      /  F ield         | OpenFOAM: The Open Source CFD Toolbox           |
|  \\    /   O peration     | Version:  5.x                                   |
|   \\  /    A nd           | Web:      www.OpenFOAM.org                      |
|    \\/     M anipulation  |                                                 |
\*---------------------------------------------------------------------------*/
FoamFile
{
    version     2.0;
    format      ascii;
    class       surfaceScalarField;
    location    "16.8";
    object      phi;
}
// * * * * * * * * * * * * * * * * * * * * * * * * * * * * * * * * * * * * * //

dimensions      [0 3 -1 0 0 0 0];

internalField   nonuniform List<scalar> 
760
(
-1.3202e-06
1.3202e-06
-2.2163e-06
8.96099e-07
-2.61974e-06
4.03442e-07
-2.84545e-06
2.25714e-07
-2.88092e-06
3.54655e-08
-2.93724e-06
5.63193e-08
-2.91266e-06
-2.45826e-08
-2.95332e-06
4.06662e-08
-2.94981e-06
-3.51023e-09
-3.00172e-06
5.19125e-08
-3.02103e-06
1.93106e-08
-3.0665e-06
4.54633e-08
-3.08701e-06
2.05168e-08
-3.10096e-06
1.39419e-08
-3.09399e-06
-6.96996e-09
-3.03465e-06
-5.9334e-08
-2.9005e-06
-1.34156e-07
-2.43497e-06
-4.65526e-07
-1.60203e-06
-8.32941e-07
-1.60203e-06
-6.84733e-07
2.00493e-06
-1.09559e-06
1.30696e-06
-1.27258e-06
5.80433e-07
-1.30443e-06
2.57564e-07
-1.32654e-06
5.75729e-08
-1.32383e-06
5.36036e-08
-1.33074e-06
-1.76661e-08
-1.31949e-06
2.94174e-08
-1.3274e-06
4.39197e-09
-1.31775e-06
4.22675e-08
-1.3342e-06
3.57557e-08
-1.3661e-06
7.73668e-08
-1.40482e-06
5.92377e-08
-1.41044e-06
1.95614e-08
-1.43367e-06
1.62572e-08
-1.37795e-06
-1.1505e-07
-1.39073e-06
-1.21374e-07
-1.38494e-06
-4.71322e-07
-1.13372e-06
-1.08416e-06
-2.73575e-06
-3.1016e-07
2.31509e-06
-4.64788e-07
1.46159e-06
-4.31028e-07
5.46674e-07
-3.96864e-07
2.234e-07
-4.03891e-07
6.45999e-08
-4.0588e-07
5.55924e-08
-4.53929e-07
3.0383e-08
-4.89933e-07
6.54217e-08
-5.42874e-07
5.73323e-08
-5.91013e-07
9.04064e-08
-6.32541e-07
7.72841e-08
-6.39188e-07
8.40133e-08
-6.32834e-07
5.28844e-08
-6.12616e-07
-6.56668e-10
-5.28794e-07
-6.75652e-08
-4.82984e-07
-1.6086e-07
-2.21881e-07
-3.82477e-07
-1.10198e-07
-5.83004e-07
-2.80681e-07
-9.13674e-07
-3.01643e-06
-1.28034e-07
2.44313e-06
-1.44247e-07
1.4778e-06
-7.12586e-08
4.73685e-07
-4.48034e-08
1.96944e-07
-8.15578e-08
1.01354e-07
-1.21603e-07
9.56374e-08
-1.79493e-07
8.8273e-08
-2.2457e-07
1.10499e-07
-2.71557e-07
1.04319e-07
-3.0186e-07
1.20709e-07
-3.03123e-07
7.85466e-08
-2.87806e-07
6.86966e-08
-2.3451e-07
-4.11247e-10
-2.54663e-07
1.94958e-08
-3.15326e-07
-6.90191e-09
-4.07783e-07
-6.84026e-08
-4.45298e-07
-3.44962e-07
-2.91362e-07
-7.36941e-07
-2.0976e-07
-9.95276e-07
-3.22619e-06
-1.93749e-08
2.4625e-06
1.6668e-08
1.44176e-06
6.0795e-08
4.29558e-07
7.70219e-08
1.80717e-07
3.33205e-08
1.45056e-07
-2.56748e-08
1.54633e-07
-7.42437e-08
1.36842e-07
-1.15893e-07
1.52148e-07
-1.40512e-07
1.28939e-07
-1.46172e-07
1.26369e-07
-1.53926e-07
8.63003e-08
-1.65485e-07
8.02553e-08
-1.26869e-07
-3.90274e-08
-2.21626e-07
1.14253e-07
-2.69331e-07
4.08034e-08
-2.48141e-07
-8.95929e-08
-1.66251e-07
-4.26852e-07
-3.56153e-08
-8.67576e-07
9.20239e-09
-1.04009e-06
-3.21699e-06
-6.32071e-09
2.46882e-06
2.87426e-08
1.40669e-06
6.13677e-08
3.96932e-07
2.22693e-08
2.19816e-07
-2.99974e-08
1.97322e-07
-6.29387e-08
1.87574e-07
-9.68412e-08
1.70745e-07
-1.36241e-07
1.91548e-07
-1.59673e-07
1.52371e-07
-1.42281e-07
1.08978e-07
-1.64081e-07
1.081e-07
-2.27033e-07
1.43208e-07
-1.06698e-07
-1.59362e-07
-1.1341e-07
1.20965e-07
-8.91776e-08
1.65711e-08
-8.35834e-08
-9.5187e-08
-2.09975e-07
-3.00461e-07
-2.00188e-07
-8.77363e-07
-1.03543e-07
-1.13674e-06
-3.32053e-06
6.33055e-08
2.40552e-06
1.10612e-07
1.35939e-06
9.30084e-08
4.14536e-07
6.35437e-08
2.49281e-07
5.30275e-08
2.07839e-07
4.5959e-09
2.36005e-07
-5.31296e-08
2.2847e-07
-7.73314e-08
2.15749e-07
-7.42264e-08
1.49266e-07
-1.21474e-07
1.56226e-07
-1.24558e-07
1.11183e-07
-1.26273e-07
1.44922e-07
2.50714e-08
-3.10706e-07
-9.36138e-08
2.3965e-07
-7.12622e-08
-5.78056e-09
-2.03207e-08
-1.46129e-07
-4.57162e-08
-2.75066e-07
-3.12233e-08
-8.91856e-07
1.30015e-09
-1.16926e-06
-3.31923e-06
2.45925e-08
2.38092e-06
4.29252e-08
1.34105e-06
7.21484e-08
3.85313e-07
3.68857e-08
2.84543e-07
1.29805e-09
2.43426e-07
-1.68295e-08
2.54133e-07
-7.0755e-08
2.82396e-07
-5.83148e-08
2.03309e-07
-1.29696e-08
1.0392e-07
-1.73478e-07
3.16734e-07
-4.39144e-07
3.7685e-07
-3.59828e-07
6.56065e-08
-8.60084e-08
-5.84526e-07
-1.65635e-07
3.19277e-07
-2.70472e-07
9.90559e-08
-2.1547e-07
-2.0113e-07
-1.40787e-07
-3.49748e-07
-1.92717e-07
-8.39927e-07
-8.15501e-08
-1.28043e-06
-3.40078e-06
4.66373e-08
2.33429e-06
8.6889e-08
1.3008e-06
4.14742e-08
4.30727e-07
2.49404e-08
3.01077e-07
1.59888e-08
2.52378e-07
7.16378e-08
1.98484e-07
1.36283e-07
2.17751e-07
1.47093e-07
1.92499e-07
2.44524e-08
2.26561e-07
-1.24511e-07
4.65698e-07
-2.73699e-07
5.26037e-07
-1.60262e-07
-4.78307e-08
9.11586e-08
-8.35946e-07
-7.2349e-08
4.82784e-07
-1.38676e-07
1.65383e-07
-1.19445e-07
-2.20361e-07
-2.3066e-07
-2.38534e-07
-1.6798e-07
-9.02607e-07
1.61401e-08
-1.46455e-06
-3.38464e-06
4.30566e-08
2.29123e-06
7.76118e-08
1.26625e-06
1.19094e-07
3.89246e-07
1.39598e-07
2.80573e-07
5.58125e-08
3.36163e-07
5.95126e-08
1.94784e-07
8.45666e-08
1.92697e-07
-1.20328e-07
3.97393e-07
-4.67512e-07
5.73745e-07
-6.42081e-07
6.40266e-07
-5.64857e-07
4.48814e-07
-3.78084e-07
-2.34604e-07
-2.76705e-07
-9.37325e-07
-2.61363e-07
4.67442e-07
-1.06913e-07
1.09324e-08
-8.236e-08
-2.44913e-07
-1.15687e-07
-2.05207e-07
-1.46378e-07
-8.71916e-07
-7.4341e-08
-1.53659e-06
-3.45898e-06
3.22888e-08
2.25894e-06
3.78721e-08
1.26066e-06
4.45578e-08
3.8256e-07
5.05282e-09
3.20078e-07
-9.56258e-08
4.36842e-07
-8.0026e-08
1.79184e-07
-1.02844e-07
2.15514e-07
-1.49705e-07
4.44255e-07
-2.26361e-07
6.50401e-07
-3.02705e-07
7.1661e-07
-3.55996e-07
5.02105e-07
-4.32801e-07
-1.57799e-07
-3.07725e-07
-1.0624e-06
5.87168e-08
1.01e-07
2.88164e-07
-2.18515e-07
4.09066e-07
-3.65815e-07
2.97527e-07
-9.3668e-08
2.14563e-07
-7.88953e-07
4.48362e-08
-1.36686e-06
-3.41415e-06
4.88019e-08
2.21014e-06
8.28691e-08
1.2266e-06
-5.47546e-08
5.20184e-07
-2.40741e-07
5.06064e-07
-3.46753e-07
5.42853e-07
-3.90022e-07
2.22453e-07
-4.85452e-07
3.10944e-07
-4.06678e-07
3.65481e-07
-3.25245e-07
5.68967e-07
-1.877e-07
5.79066e-07
8.3497e-09
3.06055e-07
-1.64714e-07
1.52648e-08
-3.43346e-07
-8.83768e-07
-1.30773e-07
-1.11573e-07
1.4172e-07
-4.91008e-07
2.42803e-07
-4.66898e-07
3.70711e-07
-2.21577e-07
4.24277e-07
-8.42519e-07
1.35369e-07
-1.07795e-06
-3.27878e-06
3.24766e-08
2.17766e-06
5.89701e-08
1.2001e-06
-4.42522e-08
6.23406e-07
-8.56532e-08
5.47465e-07
-1.67366e-08
4.73937e-07
-1.20379e-07
3.26095e-07
-3.33732e-07
5.24297e-07
-4.23036e-07
4.54786e-07
-3.75663e-07
5.21594e-07
-2.00184e-07
4.03587e-07
-6.66287e-09
1.12534e-07
8.40329e-08
-7.5431e-08
-1.08855e-07
-6.90881e-07
6.14977e-09
-2.26577e-07
3.354e-08
-5.18398e-07
-2.70874e-07
-1.62485e-07
-3.9685e-08
-4.52765e-07
-1.98155e-08
-8.62388e-07
-4.85336e-08
-1.04923e-06
-3.32731e-06
2.23089e-08
2.15535e-06
5.69414e-08
1.16547e-06
8.47176e-08
5.9563e-07
1.88038e-07
4.44145e-07
1.85539e-07
4.76436e-07
3.36467e-07
1.75168e-07
3.05895e-07
5.54869e-07
2.07705e-07
5.52976e-07
1.73921e-07
5.55379e-07
2.23233e-07
3.54275e-07
3.63189e-07
-2.74219e-08
3.71618e-07
-8.38596e-08
1.52785e-07
-4.72049e-07
2.91556e-07
-3.65347e-07
3.20512e-07
-5.47355e-07
1.77263e-07
-1.92356e-08
4.08008e-07
-6.83509e-07
3.06682e-07
-7.61063e-07
1.15244e-07
-8.57793e-07
-3.21207e-06
4.86811e-08
2.10667e-06
8.11277e-09
1.20604e-06
4.56905e-08
5.58052e-07
2.97955e-07
1.9188e-07
3.80581e-07
3.9381e-07
4.91544e-07
6.42047e-08
6.78572e-07
3.6784e-07
9.45002e-07
2.86546e-07
1.0792e-06
4.21179e-07
1.02921e-06
4.04269e-07
1.19463e-06
-1.92842e-07
1.01379e-06
9.69794e-08
1.02358e-06
-4.81836e-07
1.17748e-06
-5.19246e-07
1.07964e-06
-4.49517e-07
1.24302e-06
-1.82617e-07
7.61813e-07
-2.02304e-07
1.74927e-07
-1.74177e-07
1.42464e-08
-6.97113e-07
-3.19782e-06
7.02801e-08
2.03639e-06
1.4333e-07
1.13299e-06
1.48708e-07
5.52674e-07
-3.04967e-08
3.71085e-07
2.48083e-07
1.1523e-07
3.13546e-07
-1.25773e-09
5.99371e-07
8.20153e-08
1.12971e-06
-2.43798e-07
1.35109e-06
1.99804e-07
1.41758e-06
3.37775e-07
1.35027e-06
-1.25534e-07
1.33282e-06
1.1443e-07
1.0185e-06
-1.67515e-07
8.22993e-07
-3.23736e-07
4.77566e-07
-1.0409e-07
-9.6896e-08
3.91845e-07
-2.73161e-07
-2.60391e-08
-6.43084e-08
-3.83029e-07
3.87653e-08
-8.00186e-07
-3.15905e-06
1.516e-07
1.88479e-06
1.09294e-07
1.17529e-06
2.26509e-07
4.35459e-07
3.09799e-07
2.87795e-07
3.10512e-07
1.14517e-07
4.27518e-07
-1.18264e-07
7.76754e-07
-2.67221e-07
9.08991e-07
-3.76035e-07
1.05101e-06
5.77806e-08
1.2761e-06
1.12695e-07
1.07696e-06
7.35973e-08
1.0183e-06
1.73093e-07
2.9705e-07
5.53736e-07
-3.40643e-07
3.13957e-07
-1.1898e-07
-3.25752e-07
-7.80451e-08
3.5091e-07
5.4648e-07
-6.50564e-07
4.34805e-07
-2.71354e-07
6.8436e-08
-4.33818e-07
-3.09062e-06
3.4729e-07
1.5375e-06
5.88331e-07
9.34252e-07
4.85553e-07
5.38237e-07
6.4021e-07
1.33138e-07
7.50245e-07
4.48194e-09
7.81987e-07
-1.50007e-07
8.41369e-07
-3.26603e-07
7.50836e-07
-2.85502e-07
8.29911e-07
-2.12934e-08
1.01451e-06
-7.19087e-08
1.09407e-06
-5.95855e-09
1.2761e-06
-8.9352e-09
1.51753e-06
3.123e-07
1.18853e-06
6.4296e-07
9.24439e-07
-6.16602e-08
9.62688e-07
3.12662e-07
6.74834e-07
-3.62711e-07
3.81639e-08
3.65317e-07
3.17162e-07
-7.12816e-07
-2.77346e-06
4.55157e-07
1.08235e-06
7.70909e-07
6.18501e-07
9.39676e-07
3.6947e-07
8.08742e-07
2.64073e-07
6.2068e-07
1.92544e-07
3.47282e-07
1.23392e-07
-1.50169e-07
1.70848e-07
-5.61413e-07
1.25742e-07
-7.05291e-07
1.22585e-07
-8.40129e-07
6.29299e-08
-8.57529e-07
1.14407e-08
-8.43306e-07
-2.3158e-08
-5.31345e-07
3.39385e-10
2.19673e-08
8.96469e-08
-1.40596e-07
1.00904e-07
6.90999e-08
1.02965e-07
-2.46643e-07
-4.69682e-08
2.11162e-07
-9.24884e-08
7.59275e-07
-1.26093e-06
-2.01418e-06
1.08235e-06
1.70085e-06
2.07032e-06
2.33439e-06
2.52693e-06
2.65033e-06
2.82117e-06
2.94691e-06
3.0695e-06
3.13243e-06
3.14387e-06
3.12071e-06
3.12105e-06
3.2107e-06
3.3116e-06
3.41457e-06
3.3676e-06
3.27511e-06
2.01418e-06
)
;

boundaryField
{
    movingWall
    {
        type            calculated;
        value           uniform 0;
    }
    fixedWalls
    {
        type            calculated;
        value           uniform 0;
    }
    frontAndBack
    {
        type            empty;
        value           nonuniform 0();
    }
}


// ************************************************************************* //
