/*--------------------------------*- C++ -*----------------------------------*\
| =========                 |                                                 |
| \\      /  F ield         | OpenFOAM: The Open Source CFD Toolbox           |
|  \\    /   O peration     | Version:  5.x                                   |
|   \\  /    A nd           | Web:      www.OpenFOAM.org                      |
|    \\/     M anipulation  |                                                 |
\*---------------------------------------------------------------------------*/
FoamFile
{
    version     2.0;
    format      ascii;
    class       volVectorField;
    location    "7.5";
    object      U;
}
// * * * * * * * * * * * * * * * * * * * * * * * * * * * * * * * * * * * * * //

dimensions      [0 1 -1 0 0 0 0];

internalField   nonuniform List<vector> 
400
(
(-0.0121 0.00855314 0)
(-0.0296066 0.00194356 0)
(-0.0369496 0.00873297 0)
(-0.0503028 0.0168791 0)
(-0.0622205 0.00339614 0)
(-0.0585461 -0.00197533 0)
(-0.061958 0.00347776 0)
(-0.0619961 -0.0056343 0)
(-0.0498617 -0.0076919 0)
(-0.047023 0.00313786 0)
(-0.049951 0.00349799 0)
(-0.046988 -0.00403297 0)
(-0.0425166 -0.00449501 0)
(-0.0422591 -0.00104502 0)
(-0.0445854 -0.000368519 0)
(-0.0446271 -0.00230066 0)
(-0.0440006 -0.00349148 0)
(-0.0405082 -0.00607461 0)
(-0.0374533 -0.00994001 0)
(-0.00714016 -0.0180245 0)
(-0.00493474 0.0281646 0)
(-0.0186813 0.0215068 0)
(-0.0337388 0.0119773 0)
(-0.0404148 0.0070065 0)
(-0.0418561 0.00474382 0)
(-0.0438478 0.00225647 0)
(-0.0442363 -0.00148176 0)
(-0.0396433 -0.00586448 0)
(-0.0367035 -0.00693832 0)
(-0.0334825 -0.00553516 0)
(-0.0270757 -0.00395197 0)
(-0.021719 -0.00284878 0)
(-0.0203719 -0.000281598 0)
(-0.0184185 0.00120177 0)
(-0.0191265 0.00293027 0)
(-0.017171 0.00124483 0)
(-0.0214468 0.000582684 0)
(-0.0183242 -0.00658168 0)
(-0.0248539 -0.0161791 0)
(-0.00412115 -0.037445 0)
(0.000709599 0.0329879 0)
(0.000211785 0.0311519 0)
(-0.00298009 0.0268205 0)
(-0.00721568 0.0204327 0)
(-0.0107205 0.0115112 0)
(-0.0123905 0.00307196 0)
(-0.0128273 -0.00315834 0)
(-0.0120171 -0.00882448 0)
(-0.0116463 -0.0113399 0)
(-0.0104338 -0.0105348 0)
(-0.00943348 -0.00914411 0)
(-0.00722021 -0.00855509 0)
(-0.00782922 -0.00602125 0)
(-0.00446464 -0.00427194 0)
(-0.00631717 -0.000379325 0)
(-0.000597908 -0.00131008 0)
(-0.00509706 0.000795393 0)
(0.00135859 -0.00382175 0)
(-0.00771324 -0.0125389 0)
(-0.000867811 -0.0443504 0)
(0.00237519 0.0292779 0)
(0.00648814 0.0287836 0)
(0.00923764 0.0254645 0)
(0.0104088 0.0197133 0)
(0.010519 0.0123531 0)
(0.010061 0.00482716 0)
(0.0088487 -0.00173073 0)
(0.00742537 -0.00659971 0)
(0.00477965 -0.00880359 0)
(0.00311406 -0.00861335 0)
(0.000814284 -0.0073953 0)
(0.00113418 -0.0059117 0)
(-0.00162495 -0.00316388 0)
(-0.000277427 -0.00213066 0)
(-0.00281667 0.000458079 0)
(0.000617714 -0.00141744 0)
(-0.00283363 -0.000568675 0)
(0.00187019 -0.00573718 0)
(-0.00533001 -0.012833 0)
(0.00200614 -0.0474452 0)
(0.0023883 0.0237977 0)
(0.00702018 0.0235459 0)
(0.011215 0.02123 0)
(0.0143602 0.0171177 0)
(0.0159865 0.0115755 0)
(0.0160868 0.00541222 0)
(0.0146821 -8.53485e-05 0)
(0.012466 -0.00420272 0)
(0.00887719 -0.00630148 0)
(0.00607772 -0.0065779 0)
(0.00265268 -0.00575905 0)
(0.00203661 -0.00500234 0)
(-0.00108583 -0.00334392 0)
(0.000829326 -0.00298561 0)
(-0.00198637 -0.000577698 0)
(0.00203685 -0.00174537 0)
(-0.00199417 2.45129e-05 0)
(0.00196461 -0.00288494 0)
(-0.00291219 -0.0109436 0)
(0.00186888 -0.0483077 0)
(0.00201992 0.0191178 0)
(0.00598463 0.0189488 0)
(0.00968601 0.017183 0)
(0.0127457 0.0142195 0)
(0.0145458 0.0101908 0)
(0.0149928 0.00578648 0)
(0.0139023 0.00179476 0)
(0.0120843 -0.00136131 0)
(0.0092066 -0.00317116 0)
(0.00712694 -0.00390549 0)
(0.00399496 -0.00357592 0)
(0.00394335 -0.00335245 0)
(0.000589355 -0.00209096 0)
(0.00250951 -0.00191701 0)
(-0.00128309 -0.000362033 0)
(0.00231871 -0.00137248 0)
(-0.00234302 -0.000181731 0)
(0.00224766 -0.00468432 0)
(-0.00416297 -0.0129406 0)
(0.00303703 -0.0496112 0)
(0.00164316 0.0154235 0)
(0.00485033 0.0154742 0)
(0.00784193 0.0141495 0)
(0.0102947 0.0118757 0)
(0.0118404 0.00901787 0)
(0.0124241 0.00577965 0)
(0.0118097 0.00288281 0)
(0.010587 0.000428046 0)
(0.00850758 -0.00100077 0)
(0.0070147 -0.00214658 0)
(0.00438296 -0.0018177 0)
(0.00449163 -0.00242433 0)
(0.00122167 -0.00111197 0)
(0.0033891 -0.00193578 0)
(-0.000751825 -3.24298e-05 0)
(0.00313274 -0.00140763 0)
(-0.00239398 0.000235924 0)
(0.00242019 -0.0022878 0)
(-0.00429935 -0.0112403 0)
(0.00355003 -0.0509862 0)
(0.00138822 0.0123764 0)
(0.00400513 0.012489 0)
(0.00622308 0.0116017 0)
(0.00809273 0.0102059 0)
(0.00927072 0.00823103 0)
(0.00980137 0.00611916 0)
(0.00946362 0.00402564 0)
(0.0087511 0.00212148 0)
(0.00708494 0.000949898 0)
(0.00639693 -0.000139428 0)
(0.0037849 -8.80487e-05 0)
(0.00457658 -0.00067799 0)
(0.000854581 0.000136953 0)
(0.00363597 -0.000326214 0)
(-0.00124254 0.000806688 0)
(0.00333222 0.000103183 0)
(-0.00268498 0.00100611 0)
(0.00299158 -0.00248718 0)
(-0.00390275 -0.0132147 0)
(0.00420435 -0.0507803 0)
(0.00117549 0.00991366 0)
(0.00340713 0.0106576 0)
(0.00545633 0.0101069 0)
(0.00694048 0.00887066 0)
(0.00785278 0.00742727 0)
(0.00828282 0.00550082 0)
(0.00798049 0.00394514 0)
(0.0075631 0.00228281 0)
(0.00640165 0.001517 0)
(0.00599966 0.000201162 0)
(0.00395123 0.000556677 0)
(0.0047858 -0.000854375 0)
(0.00161503 0.000544075 0)
(0.00429825 -0.00119936 0)
(-0.000469501 0.000821654 0)
(0.00404225 -0.000962313 0)
(-0.00264284 0.000730615 0)
(0.00336692 -0.00212324 0)
(-0.00479197 -0.0122356 0)
(0.00370198 -0.0507435 0)
(0.00132364 0.00751067 0)
(0.00334548 0.00788659 0)
(0.00435937 0.00792834 0)
(0.00538175 0.00779935 0)
(0.00594948 0.00712813 0)
(0.0063829 0.00646124 0)
(0.00630701 0.00538372 0)
(0.00627007 0.00416378 0)
(0.0050485 0.00337979 0)
(0.00528482 0.00211302 0)
(0.0027491 0.00213587 0)
(0.00446788 0.00110258 0)
(0.000305617 0.00182032 0)
(0.00419754 0.00116756 0)
(-0.00182113 0.00228675 0)
(0.00449911 0.00185121 0)
(-0.00289349 0.00251452 0)
(0.0044911 -0.000243259 0)
(-0.00398833 -0.0124081 0)
(0.00448336 -0.0522344 0)
(0.00135838 0.00526842 0)
(0.00335164 0.00814362 0)
(0.00524827 0.00826463 0)
(0.00604189 0.00751525 0)
(0.00628675 0.00642372 0)
(0.0062376 0.00457041 0)
(0.00558217 0.00378701 0)
(0.00543142 0.00256372 0)
(0.00436974 0.00235084 0)
(0.00480706 0.00123006 0)
(0.00286108 0.00157294 0)
(0.00464848 0.000393413 0)
(0.00125774 0.00118577 0)
(0.00498243 -0.000238938 0)
(-0.000236437 0.000821781 0)
(0.00501366 -0.00105353 0)
(-0.00274533 0.00105085 0)
(0.00536558 -0.00209877 0)
(-0.00544825 -0.0132123 0)
(0.00508703 -0.0508294 0)
(0.00304719 0.00257595 0)
(0.00487227 0.00353903 0)
(0.00344182 0.00487232 0)
(0.00405315 0.00637692 0)
(0.00423165 0.00716867 0)
(0.00484526 0.00783628 0)
(0.00483901 0.00696446 0)
(0.00506304 0.00603131 0)
(0.00380603 0.0050211 0)
(0.00444505 0.00395518 0)
(0.0019865 0.00354353 0)
(0.00381884 0.00262759 0)
(-0.000125473 0.00291773 0)
(0.0034489 0.00233112 0)
(-0.00281739 0.00386368 0)
(0.00472218 0.00403256 0)
(-0.00485962 0.00355255 0)
(0.00655905 0.00215078 0)
(-0.00485383 -0.00961057 0)
(0.00580254 -0.0511863 0)
(0.00581215 -0.00320898 0)
(0.00596888 0.0095197 0)
(0.00697067 0.00897183 0)
(0.00553117 0.00767454 0)
(0.0038907 0.00545484 0)
(0.00306403 0.00291062 0)
(0.00231399 0.003129 0)
(0.00252631 0.00227494 0)
(0.00202888 0.00262247 0)
(0.00297139 0.00160095 0)
(0.00136011 0.00204501 0)
(0.00386195 0.00106392 0)
(-0.000224103 0.00144593 0)
(0.0060409 0.00114309 0)
(-0.00157155 -0.000773145 0)
(0.0072616 -0.000276412 0)
(-0.00335767 -0.000876178 0)
(0.00807259 -0.00314093 0)
(-0.00691452 -0.0144098 0)
(0.00595713 -0.051932 0)
(0.00338827 -0.0102876 0)
(0.00717754 0.00180762 0)
(0.00417019 0.0047705 0)
(0.00782299 0.00854563 0)
(0.00895114 0.00964683 0)
(0.00832813 0.010436 0)
(0.00684651 0.00818074 0)
(0.00648441 0.0074354 0)
(0.00410616 0.00545195 0)
(0.0052266 0.00541551 0)
(0.00188507 0.00374857 0)
(0.00444003 0.00475665 0)
(-7.55124e-05 0.00204827 0)
(0.00234851 0.00391652 0)
(-0.00181631 0.00452484 0)
(-0.000609003 0.00589705 0)
(-0.00857312 0.00452553 0)
(0.00777046 0.00506647 0)
(-0.00550298 -0.00353416 0)
(0.00750202 -0.0505719 0)
(-0.00613768 -0.0141638 0)
(0.00922345 0.0118294 0)
(-0.00315448 0.00626658 0)
(-0.00155681 0.00475048 0)
(-0.00528673 0.00434004 0)
(-0.00235058 0.00399601 0)
(-0.00308042 0.00460755 0)
(-0.00198329 0.0035376 0)
(-0.00136293 0.00355758 0)
(-0.00143367 0.0023229 0)
(-0.000343529 0.00256644 0)
(-0.00159841 0.00147729 0)
(-0.000760591 0.00321913 0)
(-1.23838e-06 0.00164898 0)
(-0.00512201 0.00108717 0)
(0.00851407 0.00399178 0)
(-0.00335657 -0.0093511 0)
(0.00562313 -0.00754159 0)
(-0.00826937 -0.0169479 0)
(0.00731466 -0.0538463 0)
(-0.0013314 -0.0164651 0)
(0.00210723 0.000704139 0)
(0.00231784 0.0138267 0)
(0.00357796 0.0105944 0)
(0.00740992 0.0105497 0)
(0.00582809 0.00909 0)
(0.00772693 0.00753918 0)
(0.00962247 0.00695642 0)
(0.00735529 0.00507124 0)
(0.0115783 0.00569329 0)
(0.00503016 0.00421185 0)
(0.0127261 0.00680233 0)
(0.00125558 0.000590625 0)
(0.013986 0.00923066 0)
(-0.00216913 -0.00221306 0)
(0.00835592 0.00502322 0)
(-0.00530532 0.0095605 0)
(0.00852445 0.00940752 0)
(-0.00597788 -0.000220672 0)
(0.00919572 -0.0488932 0)
(0.00253455 -0.0100953 0)
(-0.0128113 0.00823581 0)
(-0.00576922 0.00548151 0)
(-0.00594185 0.000792014 0)
(-0.00836989 0.00346637 0)
(-0.00317554 0.00240182 0)
(-0.00911612 0.00208357 0)
(-0.00246877 0.00270104 0)
(-0.00859434 0.00235104 0)
(-0.00392057 0.00286406 0)
(-0.00730425 0.00161215 0)
(-0.00502352 0.00333841 0)
(-0.00385861 0.00120573 0)
(-0.00843955 0.00488241 0)
(0.000568338 0.00574942 0)
(-0.00615499 0.00468654 0)
(-0.00457742 -0.00955435 0)
(0.011365 -0.0077414 0)
(-0.00706215 -0.0215153 0)
(0.00880519 -0.0533786 0)
(-0.00913506 -0.0113568 0)
(0.00634107 0.00943763 0)
(0.00764943 0.00586791 0)
(0.00324964 0.0107551 0)
(0.00811927 0.00864717 0)
(0.00705551 0.00817349 0)
(0.00849344 0.00714932 0)
(0.00989505 0.0062918 0)
(0.00957018 0.00640695 0)
(0.0118176 0.00535149 0)
(0.0102519 0.00603922 0)
(0.0126342 0.00525281 0)
(0.0111045 0.00298525 0)
(0.0137141 0.00847856 0)
(0.00828989 -0.0059339 0)
(0.015545 0.0109621 0)
(0.00884793 -0.00465696 0)
(0.00994182 0.0103318 0)
(-0.00237615 0.00874011 0)
(0.0137078 -0.0471686 0)
(-0.0214812 -0.00507146 0)
(-0.0132991 -0.00434573 0)
(-0.0233306 0.00627306 0)
(-0.0116725 -0.000214657 0)
(-0.0198583 0.00177476 0)
(-0.00890543 0.000831127 0)
(-0.0167097 0.0010803 0)
(-0.00685531 0.000451315 0)
(-0.0155248 0.00127148 0)
(-0.00362559 0.000868545 0)
(-0.01522 0.000234828 0)
(0.00135613 0.00126392 0)
(-0.0151593 -0.000612845 0)
(0.00435981 0.00720418 0)
(-0.00820456 0.0014399 0)
(-0.00389228 0.00594126 0)
(0.00516808 -0.00477116 0)
(-0.0124179 -0.000276804 0)
(0.0188792 -0.0289859 0)
(0.0115187 -0.0479025 0)
(0.00139674 0.0182595 0)
(0.0141642 0.0137206 0)
(0.0112321 0.00587418 0)
(0.022256 0.00638187 0)
(0.0215865 0.00542099 0)
(0.0263473 0.0050842 0)
(0.0283889 0.00484114 0)
(0.031952 0.00452086 0)
(0.0344183 0.0045177 0)
(0.0365725 0.00409634 0)
(0.0396954 0.00398243 0)
(0.0402568 0.00311862 0)
(0.0449408 0.00329372 0)
(0.0431537 0.00117073 0)
(0.0493535 0.00231836 0)
(0.0477696 0.000164221 0)
(0.0521974 0.00175851 0)
(0.0500813 -0.000721629 0)
(0.0434982 -0.002901 0)
(0.0263332 -0.00565204 0)
)
;

boundaryField
{
    movingWall
    {
        type            fixedValue;
        value           uniform (1 0 0);
    }
    fixedWalls
    {
        type            noSlip;
    }
    frontAndBack
    {
        type            empty;
    }
}


// ************************************************************************* //
