/*--------------------------------*- C++ -*----------------------------------*\
| =========                 |                                                 |
| \\      /  F ield         | OpenFOAM: The Open Source CFD Toolbox           |
|  \\    /   O peration     | Version:  5.x                                   |
|   \\  /    A nd           | Web:      www.OpenFOAM.org                      |
|    \\/     M anipulation  |                                                 |
\*---------------------------------------------------------------------------*/
FoamFile
{
    version     2.0;
    format      ascii;
    class       volScalarField;
    location    "5.9";
    object      p;
}
// * * * * * * * * * * * * * * * * * * * * * * * * * * * * * * * * * * * * * //

dimensions      [0 2 -2 0 0 0 0];

internalField   nonuniform List<scalar> 
400
(
6.3843e-11
5.65967e-06
1.79587e-05
3.85923e-05
7.06727e-05
0.00011838
0.000181943
0.000233579
0.000154939
-0.000136295
-0.000470432
-0.000679008
-0.000849648
-0.000901176
-0.000749422
-0.000497128
-0.000214028
0.000118563
0.000562555
0.00124207
-7.51487e-06
-3.1519e-06
5.88119e-06
1.97075e-05
3.79848e-05
5.8126e-05
7.12183e-05
4.72295e-05
-0.000104027
-0.000371744
-0.000509789
-0.000629066
-0.000892956
-0.00108547
-0.000938112
-0.000661912
-0.000424867
-0.000192568
9.93658e-05
0.000578631
-2.13489e-05
-1.86841e-05
-1.34551e-05
-6.31051e-06
1.17745e-06
5.20329e-06
-2.69059e-06
-3.84998e-05
-0.00013052
-0.000284249
-0.000474635
-0.000696184
-0.000964035
-0.000992634
-0.000874566
-0.000692628
-0.000506513
-0.000334835
-0.000170458
0.000118021
-3.90282e-05
-3.80409e-05
-3.6352e-05
-3.49863e-05
-3.58041e-05
-4.2316e-05
-6.06083e-05
-9.9599e-05
-0.000171648
-0.00028459
-0.000426082
-0.000569985
-0.000685959
-0.000730652
-0.000709974
-0.000596726
-0.000477246
-0.000352787
-0.000322684
-0.000129137
-5.84413e-05
-5.88289e-05
-5.98898e-05
-6.26784e-05
-6.88415e-05
-8.10859e-05
-0.000103723
-0.000141219
-0.000198365
-0.000279553
-0.000375401
-0.000466256
-0.000544484
-0.000582867
-0.000572124
-0.000500811
-0.000440482
-0.000348621
-0.000332219
-0.000240918
-7.7834e-05
-7.92134e-05
-8.21756e-05
-8.75997e-05
-9.67713e-05
-0.000111361
-0.000134611
-0.000166669
-0.000212756
-0.000270295
-0.000335553
-0.000395141
-0.00044615
-0.000465882
-0.000463682
-0.00041917
-0.000385514
-0.000319721
-0.000309095
-0.000267347
-9.60037e-05
-9.80676e-05
-0.000102256
-0.000109201
-0.00011977
-0.000134652
-0.000156154
-0.000184207
-0.000220317
-0.000262213
-0.000308192
-0.000348606
-0.000384828
-0.000398031
-0.00040462
-0.000367851
-0.000362353
-0.000295743
-0.000326388
-0.000236023
-0.000112179
-0.000114714
-0.00011969
-0.000127358
-0.000138232
-0.000152677
-0.000171807
-0.00019533
-0.000223943
-0.000255071
-0.000288854
-0.00031624
-0.000343493
-0.000347223
-0.000360566
-0.000324679
-0.000335655
-0.000276177
-0.000335216
-0.000286134
-0.000125852
-0.000128919
-0.000134575
-0.000142763
-0.000153522
-0.000167084
-0.000183827
-0.000203393
-0.000226239
-0.000249638
-0.000275328
-0.000294396
-0.000316596
-0.000319306
-0.000334036
-0.000304932
-0.000332576
-0.000267729
-0.000343812
-0.000264202
-0.000136849
-0.00014094
-0.000147077
-0.000155283
-0.000165493
-0.000177458
-0.000192045
-0.000207989
-0.000226578
-0.000244013
-0.000264601
-0.000276153
-0.000296277
-0.000288384
-0.00031266
-0.000268842
-0.000308728
-0.000223911
-0.000260271
-0.000196236
-0.000144206
-0.000149285
-0.000157454
-0.000166533
-0.00017672
-0.000188113
-0.000200684
-0.000214036
-0.000228988
-0.000242416
-0.000259101
-0.000267657
-0.000285174
-0.000281603
-0.00030097
-0.000276522
-0.000302767
-0.000242847
-0.000312881
-0.000252475
-0.000148767
-0.000159252
-0.000167507
-0.000176367
-0.000185075
-0.000193769
-0.000204629
-0.000214706
-0.000227441
-0.000236678
-0.000251122
-0.000254014
-0.000270943
-0.000259035
-0.000284847
-0.000247189
-0.000298685
-0.00022903
-0.000316524
-0.000234035
-0.000147874
-0.000160233
-0.00017484
-0.000185972
-0.000195499
-0.000205559
-0.000214271
-0.000223049
-0.000232511
-0.000240159
-0.00025151
-0.000255048
-0.000269202
-0.000264427
-0.000284953
-0.000265953
-0.000292607
-0.000248476
-0.000308925
-0.00024464
-0.000146577
-0.000183744
-0.000188916
-0.000200743
-0.000203671
-0.000207684
-0.000214289
-0.000218926
-0.000227869
-0.000232235
-0.00024282
-0.000242004
-0.000254265
-0.000244908
-0.00025973
-0.000239392
-0.000278133
-0.000243008
-0.00029862
-0.000258996
-0.000160587
-0.000209119
-0.00020103
-0.000206688
-0.000219777
-0.000227007
-0.000227008
-0.000232494
-0.000236418
-0.000241922
-0.000247606
-0.00025213
-0.000257582
-0.0002601
-0.000276537
-0.000268757
-0.000297883
-0.000253999
-0.00031728
-0.00024978
-0.000289059
-0.000311984
-0.00022344
-0.000258679
-0.000228977
-0.000216447
-0.00021716
-0.00021879
-0.00022702
-0.000229569
-0.00023878
-0.000236696
-0.000247246
-0.000243551
-0.000242882
-0.000226949
-0.00022732
-0.000245235
-0.000260753
-0.000228057
-0.000128459
-0.000275066
-0.000292074
-0.000235376
-0.000222966
-0.000225104
-0.000218896
-0.000236433
-0.00023483
-0.000246532
-0.000245507
-0.000253864
-0.000245029
-0.000274505
-0.000249212
-0.000272318
-0.000356476
-0.000241908
-0.000334398
-0.000136273
-0.000147749
-0.00033727
-0.000242076
-0.000198551
-0.000224101
-0.000208091
-0.000221621
-0.000222504
-0.000235446
-0.000238245
-0.000244036
-0.000241505
-0.000243231
-0.00023666
-0.000252699
-0.000324061
-0.000225749
-0.000139441
-0.000108158
3.98599e-05
-0.000105805
-0.000218879
-0.000244801
-0.000250907
-0.000222177
-0.000208982
-0.000217635
-0.000223702
-0.000240834
-0.000244634
-0.00025066
-0.000242913
-0.000276421
-0.000231573
-0.000258857
-0.000317442
-0.000211066
-0.000291319
-0.000198348
0.000297827
-0.000261873
-0.000217787
-0.00018154
-0.000242009
-0.000192836
-0.000203137
-0.000200952
-0.000208279
-0.00021708
-0.000218321
-0.000220217
-0.000217052
-0.000218887
-0.000216652
-0.000227992
-0.000217125
-0.000200585
4.83228e-06
0.000417377
0.00163913
)
;

boundaryField
{
    movingWall
    {
        type            zeroGradient;
    }
    fixedWalls
    {
        type            zeroGradient;
    }
    frontAndBack
    {
        type            empty;
    }
}


// ************************************************************************* //
