/*--------------------------------*- C++ -*----------------------------------*\
| =========                 |                                                 |
| \\      /  F ield         | OpenFOAM: The Open Source CFD Toolbox           |
|  \\    /   O peration     | Version:  5.x                                   |
|   \\  /    A nd           | Web:      www.OpenFOAM.org                      |
|    \\/     M anipulation  |                                                 |
\*---------------------------------------------------------------------------*/
FoamFile
{
    version     2.0;
    format      ascii;
    class       volScalarField;
    location    "4";
    object      p;
}
// * * * * * * * * * * * * * * * * * * * * * * * * * * * * * * * * * * * * * //

dimensions      [0 2 -2 0 0 0 0];

internalField   nonuniform List<scalar> 
400
(
3.93395e-11
3.1327e-07
1.04074e-06
2.20482e-06
3.89894e-06
6.24815e-06
9.43395e-06
1.37121e-05
1.94438e-05
2.71431e-05
3.7547e-05
5.17278e-05
7.12682e-05
9.85367e-05
0.000137106
0.000192321
0.000271459
0.000381871
0.00052936
0.000734388
-5.39386e-07
-2.58995e-07
3.98497e-07
1.44978e-06
2.97768e-06
5.09082e-06
7.946e-06
1.17623e-05
1.68467e-05
2.36332e-05
3.27435e-05
4.50843e-05
6.2005e-05
8.55625e-05
0.000118987
0.000167601
0.000239787
0.000344593
0.000499025
0.000773094
-1.6784e-06
-1.46199e-06
-9.40207e-07
-1.06575e-07
1.10151e-06
2.76157e-06
4.98348e-06
7.91677e-06
1.17665e-05
1.6817e-05
2.34695e-05
3.23048e-05
4.41914e-05
6.04676e-05
8.32689e-05
0.000116778
0.000170668
0.000253945
0.00036324
0.000756244
-3.31748e-06
-3.19105e-06
-2.85962e-06
-2.32966e-06
-1.56526e-06
-5.30121e-07
8.23008e-07
2.55051e-06
4.71975e-06
7.41077e-06
1.07187e-05
1.47573e-05
1.96698e-05
2.5632e-05
3.26193e-05
4.01459e-05
5.3568e-05
7.60111e-05
-5.35693e-05
0.000400377
-5.34481e-06
-5.32758e-06
-5.22537e-06
-5.05798e-06
-4.81844e-06
-4.51577e-06
-4.17229e-06
-3.83568e-06
-3.59323e-06
-3.59579e-06
-4.09881e-06
-5.53649e-06
-8.65349e-06
-1.47618e-05
-2.6685e-05
-5.25478e-05
-0.00010464
-0.000100604
-0.00053677
-0.000144988
-7.6185e-06
-7.72305e-06
-7.87238e-06
-8.09696e-06
-8.41617e-06
-8.88119e-06
-9.58059e-06
-1.06613e-05
-1.23573e-05
-1.50353e-05
-1.92709e-05
-2.5985e-05
-3.66769e-05
-5.38406e-05
-8.10743e-05
-0.000124129
-0.000227566
-0.000226808
-0.000493065
-0.000421497
-9.98122e-06
-1.02174e-05
-1.06265e-05
-1.12466e-05
-1.21133e-05
-1.3311e-05
-1.49813e-05
-1.73524e-05
-2.07768e-05
-2.57908e-05
-3.32083e-05
-4.42871e-05
-6.0951e-05
-8.62374e-05
-0.00012641
-0.000170878
-0.000297042
-0.000359155
-0.000442585
-0.000504545
-1.22675e-05
-1.26459e-05
-1.33144e-05
-1.43124e-05
-1.56805e-05
-1.75165e-05
-1.99976e-05
-2.34001e-05
-2.81468e-05
-3.48661e-05
-4.447e-05
-5.83018e-05
-7.87295e-05
-0.000105786
-0.000158398
-0.000198097
-0.00033817
-0.00044704
-0.000575064
-0.000608076
-1.43027e-05
-1.48727e-05
-1.5797e-05
-1.71778e-05
-1.89754e-05
-2.13195e-05
-2.43825e-05
-2.84714e-05
-3.40292e-05
-4.17167e-05
-5.248e-05
-6.70723e-05
-9.06036e-05
-0.000110862
-0.000174961
-0.000199749
-0.000333526
-0.000416978
-0.000527958
-0.00051849
-1.59095e-05
-1.67187e-05
-1.78898e-05
-1.96426e-05
-2.1789e-05
-2.44774e-05
-2.78682e-05
-3.22504e-05
-3.80421e-05
-4.57887e-05
-5.69193e-05
-6.83082e-05
-9.63101e-05
-0.000105998
-0.000170148
-0.000184042
-0.000278059
-0.000317718
-0.000353726
-0.000338179
-1.68498e-05
-1.82281e-05
-1.96426e-05
-2.22473e-05
-2.45028e-05
-2.7551e-05
-3.08426e-05
-3.51205e-05
-4.05667e-05
-4.72727e-05
-5.90537e-05
-6.53629e-05
-9.54281e-05
-9.84736e-05
-0.000147459
-0.000159285
-0.000226791
-0.000248205
-0.000300067
-0.000270356
-1.69154e-05
-1.90293e-05
-2.07775e-05
-2.32652e-05
-2.57902e-05
-2.85689e-05
-3.19096e-05
-3.58154e-05
-4.09447e-05
-4.55414e-05
-5.75084e-05
-5.92811e-05
-8.45851e-05
-8.58495e-05
-0.000121912
-0.000122694
-0.000177296
-0.000171208
-0.000242013
-0.000192521
-1.51203e-05
-1.88035e-05
-2.19394e-05
-2.63742e-05
-2.89999e-05
-3.29816e-05
-3.49083e-05
-3.84196e-05
-4.20695e-05
-4.46381e-05
-5.41743e-05
-5.53264e-05
-7.27333e-05
-7.14545e-05
-9.79917e-05
-9.02401e-05
-0.000126516
-9.39231e-05
-0.000121713
-5.89374e-05
-1.2717e-05
-2.30756e-05
-2.30461e-05
-2.6833e-05
-2.88581e-05
-3.06704e-05
-3.27377e-05
-3.46372e-05
-3.79065e-05
-3.97808e-05
-4.61087e-05
-4.65089e-05
-5.86248e-05
-5.22071e-05
-7.35148e-05
-4.66356e-05
-8.2599e-05
-1.47063e-05
-4.95268e-05
2.40308e-05
-3.65902e-06
-1.4155e-05
-2.20471e-05
-3.14248e-05
-3.51175e-05
-3.93378e-05
-3.83951e-05
-4.03894e-05
-4.04079e-05
-4.09385e-05
-4.38291e-05
-4.19724e-05
-5.05438e-05
-4.13789e-05
-5.76093e-05
-3.51789e-05
-6.00912e-05
-8.02434e-06
-6.87175e-05
4.58871e-05
-1.02548e-06
-4.05126e-05
-2.97194e-05
-3.57195e-05
-3.50019e-05
-3.31865e-05
-3.21951e-05
-3.15728e-05
-3.1665e-05
-3.14278e-05
-3.28105e-05
-3.06038e-05
-3.57406e-05
-2.41117e-05
-3.43047e-05
9.33223e-07
-2.10874e-05
3.70689e-05
-2.14906e-05
9.32897e-05
1.9682e-05
-3.44557e-05
-2.98259e-05
-5.11059e-05
-5.01843e-05
-5.13076e-05
-4.22502e-05
-4.14024e-05
-3.92997e-05
-3.71614e-05
-3.43592e-05
-3.21663e-05
-3.59788e-05
-2.545e-05
-3.21808e-05
-1.25546e-05
-3.8683e-05
3.49898e-05
-1.94479e-05
0.000154483
-1.51486e-05
-0.000156619
-7.14583e-05
-5.01169e-05
-4.43201e-05
-3.61458e-05
-2.97994e-05
-2.78701e-05
-2.29317e-05
-2.16743e-05
-1.8806e-05
-1.71878e-05
-1.62646e-05
-1.09517e-05
-1.68181e-05
2.71601e-06
4.58009e-05
4.6749e-05
0.000138929
0.000304292
4.15752e-05
-9.3565e-05
-5.94079e-05
-3.79968e-05
-3.2045e-05
-3.77288e-05
-3.16329e-05
-3.33099e-05
-3.80993e-05
-4.09931e-05
-2.36052e-05
-3.0402e-05
-3.23583e-05
-2.15812e-05
-2.08872e-05
-5.55437e-05
-1.68619e-05
3.96931e-05
-7.34075e-06
0.000587958
-9.24404e-05
-6.35714e-05
-1.73268e-06
-3.57914e-05
-1.4584e-05
-1.8996e-05
-7.06502e-06
-3.50174e-06
-1.96373e-05
-1.1942e-05
-6.48556e-06
-1.17066e-05
-4.98457e-06
5.1893e-06
1.94429e-05
3.68253e-05
3.2639e-05
0.000312943
0.000710634
0.00194663
)
;

boundaryField
{
    movingWall
    {
        type            zeroGradient;
    }
    fixedWalls
    {
        type            zeroGradient;
    }
    frontAndBack
    {
        type            empty;
    }
}


// ************************************************************************* //
