/*--------------------------------*- C++ -*----------------------------------*\
| =========                 |                                                 |
| \\      /  F ield         | OpenFOAM: The Open Source CFD Toolbox           |
|  \\    /   O peration     | Version:  5.x                                   |
|   \\  /    A nd           | Web:      www.OpenFOAM.org                      |
|    \\/     M anipulation  |                                                 |
\*---------------------------------------------------------------------------*/
FoamFile
{
    version     2.0;
    format      ascii;
    class       surfaceScalarField;
    location    "4";
    object      phi;
}
// * * * * * * * * * * * * * * * * * * * * * * * * * * * * * * * * * * * * * //

dimensions      [0 3 -1 0 0 0 0];

internalField   nonuniform List<scalar> 
760
(
-1.61178e-08
1.61178e-08
-3.32798e-08
1.7162e-08
-5.10626e-08
1.77828e-08
-6.98048e-08
1.87421e-08
-8.98582e-08
2.00534e-08
-1.11607e-07
2.17485e-08
-1.35474e-07
2.38669e-08
-1.61927e-07
2.64534e-08
-1.91476e-07
2.95486e-08
-2.24646e-07
3.3171e-08
-2.61927e-07
3.7281e-08
-3.0364e-07
4.17127e-08
-3.49682e-07
4.60419e-08
-3.99028e-07
4.93458e-08
-4.48771e-07
4.97428e-08
-4.92255e-07
4.34843e-08
-5.16357e-07
2.41022e-08
-4.97531e-07
-1.88261e-08
-3.81997e-07
-1.15534e-07
-3.81997e-07
-1.67239e-08
3.28417e-08
-3.45117e-08
3.49498e-08
-5.29034e-08
3.61745e-08
-7.22249e-08
3.80636e-08
-9.28147e-08
4.06432e-08
-1.15043e-07
4.39767e-08
-1.39321e-07
4.81454e-08
-1.66113e-07
5.32453e-08
-1.95938e-07
5.93731e-08
-2.29366e-07
6.65988e-08
-2.66995e-07
7.49101e-08
-3.09388e-07
8.4106e-08
-3.56935e-07
9.35892e-08
-4.09575e-07
1.01986e-07
-4.66242e-07
1.06409e-07
-5.23374e-07
1.00616e-07
-5.71176e-07
7.19044e-08
-5.9541e-07
5.40807e-09
-5.39277e-07
-1.71667e-07
-9.21274e-07
-1.61572e-08
4.89989e-08
-3.33713e-08
5.21639e-08
-5.11638e-08
5.3967e-08
-6.98434e-08
5.67432e-08
-8.97304e-08
6.05302e-08
-1.11178e-07
6.54242e-08
-1.34587e-07
7.15547e-08
-1.60426e-07
7.90838e-08
-1.89248e-07
8.81953e-08
-2.21721e-07
9.90716e-08
-2.58658e-07
1.11847e-07
-3.0107e-07
1.26518e-07
-3.50241e-07
1.4276e-07
-4.07874e-07
1.59619e-07
-4.76502e-07
1.75037e-07
-5.59967e-07
1.84081e-07
-6.59193e-07
1.7113e-07
-7.65342e-07
1.11557e-07
-8.27951e-07
-1.09058e-07
-1.74922e-06
-1.52563e-08
6.42552e-08
-3.15588e-08
6.84665e-08
-4.84065e-08
7.08147e-08
-6.60811e-08
7.44179e-08
-8.48722e-08
7.93213e-08
-1.05101e-07
8.56532e-08
-1.27142e-07
9.35954e-08
-1.51447e-07
1.03389e-07
-1.78588e-07
1.15336e-07
-2.09303e-07
1.29787e-07
-2.44595e-07
1.47139e-07
-2.85884e-07
1.67807e-07
-3.35306e-07
1.92182e-07
-3.96282e-07
2.20595e-07
-4.74964e-07
2.53718e-07
-5.84555e-07
2.93672e-07
-7.4204e-07
3.28615e-07
-8.71458e-07
2.40976e-07
-8.672e-07
-1.13316e-07
-2.61643e-06
-1.4077e-08
7.83321e-08
-2.91932e-08
8.35827e-08
-4.48171e-08
8.64386e-08
-6.11931e-08
9.07938e-08
-7.85636e-08
9.66918e-08
-9.71976e-08
1.04287e-07
-1.17415e-07
1.13813e-07
-1.39619e-07
1.25593e-07
-1.64338e-07
1.40055e-07
-1.92296e-07
1.57745e-07
-2.24519e-07
1.79362e-07
-2.62535e-07
2.05823e-07
-3.08735e-07
2.38382e-07
-3.66994e-07
2.78854e-07
-4.42712e-07
3.29436e-07
-5.4182e-07
3.92781e-07
-6.78207e-07
4.65002e-07
-7.15853e-07
2.78621e-07
-4.03024e-07
-4.26145e-07
-3.01945e-06
-1.26355e-08
9.09676e-08
-2.63182e-08
9.72654e-08
-4.04776e-08
1.00598e-07
-5.53083e-08
1.05625e-07
-7.09864e-08
1.1237e-07
-8.77023e-08
1.21003e-07
-1.0569e-07
1.318e-07
-1.25258e-07
1.45161e-07
-1.46828e-07
1.61626e-07
-1.70997e-07
1.81914e-07
-1.9862e-07
2.06985e-07
-2.30959e-07
2.38163e-07
-2.69857e-07
2.7728e-07
-3.18238e-07
3.27235e-07
-3.79894e-07
3.91092e-07
-4.41315e-07
4.54202e-07
-5.04381e-07
5.28068e-07
-5.08649e-07
2.8289e-07
-9.78039e-08
-8.3699e-07
-3.11725e-06
-1.09334e-08
1.01901e-07
-2.29685e-08
1.093e-07
-3.54678e-08
1.13097e-07
-4.85733e-08
1.1873e-07
-6.23628e-08
1.26159e-07
-7.69215e-08
1.35562e-07
-9.23619e-08
1.47241e-07
-1.08851e-07
1.6165e-07
-1.26633e-07
1.79407e-07
-1.46049e-07
2.0133e-07
-1.67565e-07
2.28501e-07
-1.91858e-07
2.62456e-07
-2.19852e-07
3.05274e-07
-2.51314e-07
3.58697e-07
-2.95137e-07
4.34915e-07
-3.29759e-07
4.88824e-07
-3.58124e-07
5.56433e-07
-3.4859e-07
2.73355e-07
-1.68522e-07
-1.01706e-06
-3.28578e-06
-8.96012e-09
1.10861e-07
-1.91656e-08
1.19506e-07
-2.98681e-08
1.238e-07
-4.11457e-08
1.30008e-07
-5.29589e-08
1.37973e-07
-6.52409e-08
1.47844e-07
-7.79666e-08
1.59967e-07
-9.11391e-08
1.74823e-07
-1.04815e-07
1.93083e-07
-1.19095e-07
2.1561e-07
-1.34071e-07
2.43477e-07
-1.49526e-07
2.77911e-07
-1.67086e-07
3.22834e-07
-1.75979e-07
3.67589e-07
-1.99373e-07
4.5831e-07
-2.00196e-07
4.89647e-07
-1.94955e-07
5.51192e-07
-1.2914e-07
2.0754e-07
-5.35696e-08
-1.09263e-06
-3.33935e-06
-6.56044e-09
1.17422e-07
-1.48791e-08
1.27825e-07
-2.36338e-08
1.32555e-07
-3.32091e-08
1.39583e-07
-4.30718e-08
1.47835e-07
-5.31154e-08
1.57887e-07
-6.30676e-08
1.69919e-07
-7.27725e-08
1.84527e-07
-8.20315e-08
2.02342e-07
-9.05816e-08
2.2416e-07
-9.82995e-08
2.51194e-07
-1.01952e-07
2.81564e-07
-1.09263e-07
3.30145e-07
-1.00246e-07
3.58572e-07
-9.82223e-08
4.56286e-07
-7.13738e-08
4.62798e-07
-1.7803e-08
4.97621e-07
6.33604e-08
1.26377e-07
1.65314e-07
-1.19458e-06
-3.17403e-06
-3.86617e-09
1.21288e-07
-1.01738e-08
1.34132e-07
-1.69693e-08
1.3935e-07
-2.48873e-08
1.47501e-07
-3.29354e-08
1.55883e-07
-4.08768e-08
1.65829e-07
-4.82663e-08
1.77308e-07
-5.48016e-08
1.91063e-07
-6.02234e-08
2.07764e-07
-6.38212e-08
2.27758e-07
-6.70317e-08
2.54405e-07
-6.21238e-08
2.76656e-07
-6.11676e-08
3.29189e-07
-4.55756e-08
3.4298e-07
-1.70838e-08
4.27794e-07
1.35542e-08
4.3216e-07
8.17578e-08
4.29417e-07
1.36649e-07
7.14856e-08
1.1569e-07
-1.17362e-06
-3.05834e-06
7.69497e-10
1.20518e-07
-3.47054e-09
1.38372e-07
-8.33468e-09
1.44214e-07
-1.64118e-08
1.55578e-07
-2.29789e-08
1.62451e-07
-2.99729e-08
1.72823e-07
-3.48083e-08
1.82144e-07
-3.80566e-08
1.94311e-07
-3.92565e-08
2.08964e-07
-3.65225e-08
2.25024e-07
-3.28829e-08
2.50765e-07
-2.27163e-08
2.66489e-07
-4.05677e-09
3.1053e-07
1.22242e-08
3.26699e-07
5.13234e-08
3.88695e-07
9.33046e-08
3.90179e-07
1.41594e-07
3.81128e-07
1.61031e-07
5.20488e-08
4.79612e-08
-1.06055e-06
-3.01038e-06
3.87888e-09
1.16639e-07
1.01929e-09
1.41232e-07
-3.45464e-09
1.48688e-07
-8.06914e-09
1.60193e-07
-1.29581e-08
1.6734e-07
-1.71222e-08
1.76987e-07
-2.02243e-08
1.85246e-07
-2.14804e-08
1.95567e-07
-2.09827e-08
2.08466e-07
-1.70901e-08
2.21131e-07
-9.91716e-09
2.43592e-07
-2.89019e-09
2.59462e-07
1.74249e-08
2.90215e-07
3.56232e-08
3.085e-07
7.6818e-08
3.475e-07
1.17767e-07
3.4923e-07
1.79012e-07
3.19884e-07
2.16056e-07
1.50042e-08
1.46938e-07
-9.91435e-07
-2.86344e-06
2.28551e-08
9.37843e-08
2.12435e-08
1.42844e-07
1.7074e-08
1.52857e-07
4.07074e-09
1.73196e-07
-5.43119e-09
1.76841e-07
-1.33769e-08
1.84933e-07
-1.51497e-08
1.87018e-07
-1.39919e-08
1.94409e-07
-7.70962e-09
2.02184e-07
2.01842e-10
2.1322e-07
1.65249e-08
2.27269e-07
3.33248e-08
2.42662e-07
6.04642e-08
2.63075e-07
9.06863e-08
2.78278e-07
1.32643e-07
3.05544e-07
1.79878e-07
3.01995e-07
2.25527e-07
2.74235e-07
2.06211e-07
3.43204e-08
1.32656e-07
-9.1788e-07
-2.73079e-06
2.10965e-08
7.26878e-08
8.36794e-09
1.55572e-07
4.12378e-09
1.57102e-07
4.92338e-09
1.72396e-07
3.29264e-09
1.78472e-07
2.67044e-09
1.85555e-07
3.86011e-09
1.85829e-07
5.72256e-09
1.92547e-07
1.10665e-08
1.9684e-07
1.78723e-08
2.06414e-07
2.86692e-08
2.16472e-07
3.99983e-08
2.31333e-07
5.86625e-08
2.44411e-07
7.11485e-08
2.65792e-07
1.06929e-07
2.69763e-07
1.1656e-07
2.92364e-07
1.75875e-07
2.1492e-07
1.88565e-07
2.16306e-08
4.86323e-08
-7.77947e-07
-2.68215e-06
9.50781e-08
-2.23903e-08
9.34162e-08
1.57234e-07
6.65006e-08
1.84017e-07
2.19067e-08
2.1699e-07
-4.18067e-09
2.0456e-07
-1.78911e-08
1.99265e-07
-1.72767e-08
1.85214e-07
-1.12523e-08
1.86523e-07
2.25421e-09
1.83333e-07
1.73629e-08
1.91305e-07
3.91062e-08
1.94729e-07
6.04036e-08
2.10036e-07
9.15525e-08
2.13262e-07
1.22355e-07
2.3499e-07
1.68592e-07
2.23526e-07
2.02104e-07
2.58852e-07
2.34113e-07
1.82911e-07
1.35571e-07
1.20173e-07
2.51655e-08
-6.67542e-07
-2.65699e-06
1.31652e-07
-1.54042e-07
6.25716e-08
2.26315e-07
6.49967e-08
1.81592e-07
6.52101e-08
2.16777e-07
5.15982e-08
2.18171e-07
4.14362e-08
2.09427e-07
4.19124e-08
1.84738e-07
4.38594e-08
1.84576e-07
5.0249e-08
1.76944e-07
6.01204e-08
1.81434e-07
7.16852e-08
1.83164e-07
8.50012e-08
1.9672e-07
9.96037e-08
1.9866e-07
9.99598e-08
2.34634e-07
1.13493e-07
2.09993e-07
7.61117e-08
2.96232e-07
1.80793e-07
7.82292e-08
1.62571e-07
1.38395e-07
1.02178e-07
-6.07149e-07
-2.55481e-06
1.84943e-07
-3.38985e-07
-7.70699e-09
4.18964e-07
-1.66253e-07
3.40139e-07
-2.1327e-07
2.63794e-07
-2.11891e-07
2.16792e-07
-1.83554e-07
1.8109e-07
-1.4288e-07
1.44064e-07
-1.1503e-07
1.56726e-07
-8.14249e-08
1.43338e-07
-5.11865e-08
1.51196e-07
-1.77812e-08
1.49759e-07
8.27196e-09
1.70667e-07
4.27363e-08
1.64195e-07
7.12923e-08
2.06078e-07
1.42378e-07
1.38907e-07
1.13429e-07
3.25182e-07
2.21318e-07
-2.96599e-08
1.40388e-07
2.19326e-07
6.0845e-08
-5.27607e-07
-2.49396e-06
9.00896e-08
-4.29075e-07
4.02766e-07
1.06288e-07
4.57365e-07
2.8554e-07
4.76179e-07
2.44979e-07
5.04446e-07
1.88525e-07
4.77886e-07
2.0765e-07
4.85619e-07
1.36332e-07
4.44925e-07
1.97419e-07
4.31761e-07
1.56502e-07
3.98855e-07
1.84102e-07
3.88956e-07
1.59658e-07
3.70976e-07
1.88646e-07
3.63531e-07
1.7164e-07
3.69112e-07
2.00498e-07
3.59892e-07
1.48127e-07
2.56119e-07
4.28955e-07
2.6134e-07
-3.48811e-08
1.48932e-07
3.31734e-07
2.35742e-07
-6.14416e-07
-2.25822e-06
-8.25292e-07
3.96217e-07
-9.53208e-07
2.34203e-07
-8.8398e-07
2.16312e-07
-8.30963e-07
1.91962e-07
-8.1298e-07
1.70542e-07
-7.81612e-07
1.76282e-07
-7.6135e-07
1.1607e-07
-7.13059e-07
1.49128e-07
-6.93523e-07
1.36966e-07
-6.26398e-07
1.16977e-07
-5.72375e-07
1.05635e-07
-5.05785e-07
1.22056e-07
-4.38799e-07
1.04653e-07
-3.30425e-07
9.21243e-08
-2.76562e-07
9.42643e-08
-8.13275e-09
1.60525e-07
6.43173e-08
-1.07331e-07
3.79468e-07
1.65828e-08
6.62879e-07
-8.97827e-07
-1.59534e-06
3.96217e-07
6.30421e-07
8.46732e-07
1.03869e-06
1.20924e-06
1.38552e-06
1.50159e-06
1.65072e-06
1.78768e-06
1.90466e-06
2.0103e-06
2.13235e-06
2.23701e-06
2.32913e-06
2.42339e-06
2.58392e-06
2.47659e-06
2.49317e-06
1.59534e-06
)
;

boundaryField
{
    movingWall
    {
        type            calculated;
        value           uniform 0;
    }
    fixedWalls
    {
        type            calculated;
        value           uniform 0;
    }
    frontAndBack
    {
        type            empty;
        value           nonuniform 0();
    }
}


// ************************************************************************* //
