/*--------------------------------*- C++ -*----------------------------------*\
| =========                 |                                                 |
| \\      /  F ield         | OpenFOAM: The Open Source CFD Toolbox           |
|  \\    /   O peration     | Version:  5.x                                   |
|   \\  /    A nd           | Web:      www.OpenFOAM.org                      |
|    \\/     M anipulation  |                                                 |
\*---------------------------------------------------------------------------*/
FoamFile
{
    version     2.0;
    format      ascii;
    class       volVectorField;
    location    "4";
    object      U;
}
// * * * * * * * * * * * * * * * * * * * * * * * * * * * * * * * * * * * * * //

dimensions      [0 1 -1 0 0 0 0];

internalField   nonuniform List<vector> 
400
(
(-0.000158535 0.000159642 0)
(-0.000491377 0.000170019 0)
(-0.00084285 0.000176273 0)
(-0.00120735 0.000185924 0)
(-0.00159507 0.000199103 0)
(-0.00201282 0.000216117 0)
(-0.0024688 0.000237349 0)
(-0.00297201 0.000263235 0)
(-0.00353237 0.000294164 0)
(-0.00416053 0.000330297 0)
(-0.00486715 0.00037118 0)
(-0.00566116 0.000415004 0)
(-0.00654609 0.000457215 0)
(-0.00751264 0.000487879 0)
(-0.0085242 0.000486666 0)
(-0.00948875 0.000413276 0)
(-0.0102075 0.000197647 0)
(-0.0103161 -0.000248763 0)
(-0.0094842 -0.00117475 0)
(-0.00453921 -0.00340603 0)
(-0.000164477 0.00048842 0)
(-0.000509692 0.000519846 0)
(-0.000873656 0.00053832 0)
(-0.00125004 0.000566839 0)
(-0.00164894 0.000605784 0)
(-0.00207685 0.000656083 0)
(-0.00254172 0.000718903 0)
(-0.00305236 0.000795572 0)
(-0.00361871 0.000887345 0)
(-0.0042519 0.000994917 0)
(-0.00496402 0.00111745 0)
(-0.00576738 0.0012507 0)
(-0.00667262 0.00138341 0)
(-0.00768492 0.00149047 0)
(-0.00879646 0.00151956 0)
(-0.00996308 0.00136148 0)
(-0.0110342 0.000807661 0)
(-0.011827 -0.000431777 0)
(-0.0123794 -0.00308262 0)
(-0.00735013 -0.0113458 0)
(-0.000158726 0.000818999 0)
(-0.000492556 0.000871644 0)
(-0.000844813 0.000901873 0)
(-0.00120874 0.000948464 0)
(-0.00159415 0.00101205 0)
(-0.00200712 0.00109419 0)
(-0.00245533 0.00119693 0)
(-0.00294746 0.00132274 0)
(-0.00349378 0.00147424 0)
(-0.00410658 0.00165363 0)
(-0.00480086 0.0018616 0)
(-0.00559511 0.00209518 0)
(-0.00651263 0.00234344 0)
(-0.00758389 0.00257964 0)
(-0.0088553 0.00274641 0)
(-0.0103911 0.00271499 0)
(-0.012179 0.00217601 0)
(-0.0143021 0.000684978 0)
(-0.0178795 -0.00297811 0)
(-0.0121635 -0.0235204 0)
(-0.000149605 0.00113314 0)
(-0.000465321 0.00120678 0)
(-0.000799045 0.00124825 0)
(-0.0011434 0.00131199 0)
(-0.00150775 0.00139883 0)
(-0.00189745 0.00151097 0)
(-0.00231957 0.00165145 0)
(-0.00278231 0.00182419 0)
(-0.00329584 0.00203384 0)
(-0.00387314 0.00228542 0)
(-0.00453146 0.00258368 0)
(-0.00529463 0.00293171 0)
(-0.00619704 0.00332833 0)
(-0.0072905 0.00376342 0)
(-0.00867058 0.004214 0)
(-0.0105511 0.00463103 0)
(-0.0130352 0.00475483 0)
(-0.015728 0.00348338 0)
(-0.0224347 -0.00155457 0)
(-0.00809345 -0.045311 0)
(-0.000137655 0.00142672 0)
(-0.00042973 0.00152117 0)
(-0.000739407 0.00157314 0)
(-0.00105847 0.00165267 0)
(-0.00139558 0.00176064 0)
(-0.00175501 0.00189985 0)
(-0.00214272 0.00207437 0)
(-0.0025658 0.00228975 0)
(-0.00303342 0.00255307 0)
(-0.00355778 0.00287302 0)
(-0.00415583 0.00326001 0)
(-0.00485207 0.00372638 0)
(-0.00568322 0.00428688 0)
(-0.00670183 0.00496027 0)
(-0.00799084 0.00577625 0)
(-0.00980664 0.00679998 0)
(-0.0124658 0.00789259 0)
(-0.0121518 0.00556493 0)
(-0.0208 -0.00412468 0)
(0.00800945 -0.0628551 0)
(-0.000123015 0.00169415 0)
(-0.00038636 0.00180941 0)
(-0.000667155 0.0018712 0)
(-0.000956062 0.00196498 0)
(-0.00126078 0.0020914 0)
(-0.00158401 0.00225372 0)
(-0.00193004 0.00245695 0)
(-0.00230409 0.00270827 0)
(-0.00271321 0.00301728 0)
(-0.00316711 0.00339655 0)
(-0.00367944 0.00386266 0)
(-0.0042699 0.00443821 0)
(-0.0049671 0.00515482 0)
(-0.00580844 0.00605997 0)
(-0.00681508 0.00721525 0)
(-0.00801103 0.0085594 0)
(-0.0108223 0.0101034 0)
(-0.00727521 0.00588492 0)
(-0.0157674 -0.0114396 0)
(0.0127978 -0.0610235 0)
(-0.000105624 0.00193032 0)
(-0.000335502 0.00206675 0)
(-0.000583422 0.00213791 0)
(-0.000838444 0.00224432 0)
(-0.00110708 0.00238616 0)
(-0.00138978 0.00256666 0)
(-0.0016886 0.00279168 0)
(-0.00200606 0.0030696 0)
(-0.00234597 0.00341197 0)
(-0.00271362 0.003834 0)
(-0.00311608 0.00435589 0)
(-0.00356313 0.00500564 0)
(-0.00406711 0.0058237 0)
(-0.00464603 0.00685787 0)
(-0.00540492 0.0082509 0)
(-0.00574041 0.00950406 0)
(-0.00848235 0.0109901 0)
(-0.00486968 0.00551007 0)
(-0.00992016 -0.0197871 0)
(0.00326106 -0.0620706 0)
(-8.52717e-05 0.00212958 0)
(-0.000277114 0.00229012 0)
(-0.000489198 0.0023706 0)
(-0.000708013 0.00248968 0)
(-0.000938689 0.00264339 0)
(-0.00117885 0.00283653 0)
(-0.00142758 0.00307476 0)
(-0.00168447 0.00336806 0)
(-0.00194977 0.00372931 0)
(-0.00222458 0.00417591 0)
(-0.00250993 0.00473069 0)
(-0.00280553 0.00542354 0)
(-0.00312111 0.00631643 0)
(-0.00336687 0.00734327 0)
(-0.00398989 0.00902751 0)
(-0.00330088 0.00997022 0)
(-0.00548357 0.0113069 0)
(-0.00178776 0.00483453 0)
(-0.00393125 -0.0225885 0)
(0.00197273 -0.0690897 0)
(-5.92402e-05 0.00228723 0)
(-0.000208457 0.00247259 0)
(-0.000383574 0.00256351 0)
(-0.00056591 0.00269197 0)
(-0.000760624 0.00285575 0)
(-0.000958893 0.00305496 0)
(-0.00115773 0.00329843 0)
(-0.00135243 0.00359443 0)
(-0.0015395 0.00395666 0)
(-0.00171451 0.00440061 0)
(-0.00187267 0.00494943 0)
(-0.00198368 0.00559628 0)
(-0.0021632 0.00651604 0)
(-0.00189319 0.00726371 0)
(-0.00253109 0.00908386 0)
(-0.000830671 0.00951355 0)
(-0.00253799 0.0105285 0)
(0.00204276 0.00338499 0)
(0.000105699 -0.0226187 0)
(0.00713204 -0.0652242 0)
(-2.96714e-05 0.00238773 0)
(-0.000131048 0.00263268 0)
(-0.000269565 0.00272731 0)
(-0.000416047 0.00290215 0)
(-0.000575482 0.0030586 0)
(-0.000736228 0.00326314 0)
(-0.000888187 0.00349049 0)
(-0.0010266 0.00377289 0)
(-0.00114412 0.00411736 0)
(-0.00123217 0.00454075 0)
(-0.00131515 0.00508617 0)
(-0.00123113 0.00564103 0)
(-0.00145826 0.00668664 0)
(-0.000682384 0.00718454 0)
(-0.00146436 0.00910948 0)
(0.00101465 0.0092828 0)
(-0.000635587 0.00969982 0)
(0.00420206 0.0021695 0)
(0.000853676 -0.0232598 0)
(0.0042351 -0.0596746 0)
(4.09223e-05 0.00244535 0)
(-1.41865e-05 0.00269943 0)
(-0.000114865 0.00281998 0)
(-0.000235195 0.00293513 0)
(-0.000401909 0.00312172 0)
(-0.000529022 0.00330367 0)
(-0.000650545 0.00354595 0)
(-0.000728184 0.00381584 0)
(-0.000775288 0.00414583 0)
(-0.000750432 0.00451039 0)
(-0.000785522 0.00503004 0)
(-0.000389612 0.00539305 0)
(-0.00067556 0.00633121 0)
(0.000600362 0.00654295 0)
(-0.000240437 0.00794797 0)
(0.00259325 0.00784885 0)
(0.00071053 0.007813 0)
(0.00538194 0.000744958 0)
(0.000513908 -0.0229192 0)
(0.00171973 -0.061346 0)
(6.64652e-05 0.00233116 0)
(7.54937e-05 0.00286278 0)
(-3.06856e-05 0.00298717 0)
(-0.000115264 0.0033918 0)
(-0.000200959 0.00347164 0)
(-0.00030833 0.00373563 0)
(-0.000370423 0.00384385 0)
(-0.000421811 0.00406094 0)
(-0.000444408 0.00429382 0)
(-0.000338495 0.00457785 0)
(-0.00042343 0.00506338 0)
(0.000112016 0.00540375 0)
(-0.000284242 0.00624155 0)
(0.00111836 0.00666439 0)
(9.13104e-05 0.00787879 0)
(0.00334279 0.00809871 0)
(0.000862362 0.00763488 0)
(0.00697467 0.00137984 0)
(0.000764349 -0.0204911 0)
(0.00578687 -0.0597788 0)
(0.000393992 0.00238194 0)
(0.000476761 0.00287184 0)
(0.000402328 0.00291522 0)
(0.000248821 0.00288788 0)
(-7.13862e-05 0.00309423 0)
(-0.000166272 0.00315936 0)
(-0.000336842 0.00340977 0)
(-0.000289775 0.00358986 0)
(-0.000273233 0.00389796 0)
(2.04407e-06 0.00413664 0)
(-1.64389e-06 0.00455193 0)
(0.0007502 0.00482065 0)
(0.000435337 0.00529202 0)
(0.00221514 0.00550297 0)
(0.001084 0.00596638 0)
(0.00466887 0.00554843 0)
(0.00190454 0.00517823 0)
(0.0078677 -0.00083968 0)
(-0.000429147 -0.0192078 0)
(0.00640586 -0.0546076 0)
(0.000417067 0.00125894 0)
(0.000335688 0.00262318 0)
(4.70647e-05 0.00321604 0)
(9.69775e-05 0.00419845 0)
(0.000110895 0.00416061 0)
(2.60149e-05 0.00449048 0)
(7.70849e-05 0.00428601 0)
(8.69527e-05 0.00443156 0)
(0.000125989 0.00440003 0)
(0.000350664 0.00459564 0)
(0.000306062 0.00475333 0)
(0.000937495 0.00508286 0)
(0.000511644 0.00544679 0)
(0.00206293 0.00589055 0)
(0.000458198 0.00650168 0)
(0.00430202 0.00704786 0)
(-0.000265284 0.00609556 0)
(0.0081569 0.00245202 0)
(-0.0015119 -0.0162822 0)
(0.00389964 -0.0533646 0)
(0.00147797 0.00178876 0)
(0.00217445 0.00398386 0)
(0.00163391 0.00323615 0)
(0.000934649 0.00256133 0)
(-8.37545e-06 0.0027672 0)
(-0.000181049 0.00262548 0)
(-0.000481007 0.00288062 0)
(-0.00025173 0.00296732 0)
(-0.000173223 0.00321458 0)
(0.000271843 0.00340052 0)
(0.000374964 0.00366313 0)
(0.00129456 0.00395539 0)
(0.000941553 0.00409578 0)
(0.00299622 0.0044955 0)
(0.00150677 0.00403344 0)
(0.00576788 0.004092 0)
(0.00161248 0.00213568 0)
(0.00868015 -0.0018094 0)
(-0.00413505 -0.0160817 0)
(0.00551362 -0.0544822 0)
(0.00302945 -0.0027819 0)
(0.00176134 0.00184377 0)
(0.00102548 0.00387353 0)
(0.00140579 0.00633941 0)
(0.00127918 0.00570971 0)
(0.000823841 0.0057342 0)
(0.00082703 0.00484767 0)
(0.000849977 0.00484629 0)
(0.000880995 0.00443319 0)
(0.00117204 0.00456378 0)
(0.00115908 0.00441226 0)
(0.0018236 0.00472957 0)
(0.00138241 0.00473145 0)
(0.00287202 0.00523795 0)
(0.000762503 0.00525962 0)
(0.00425853 0.00687414 0)
(-0.00167586 0.00569433 0)
(0.00975328 0.00705765 0)
(-0.00423155 -0.00966968 0)
(0.00908539 -0.0523382 0)
(0.00328201 -0.00292265 0)
(0.00347436 0.00805719 0)
(-0.00367677 0.00382633 0)
(-0.00336913 0.00200091 0)
(-0.00485119 0.00262405 0)
(-0.00382139 0.00216002 0)
(-0.00327253 0.00216565 0)
(-0.00261449 0.00213907 0)
(-0.00190035 0.00226877 0)
(-0.00138682 0.00233421 0)
(-0.000678485 0.00258421 0)
(1.96927e-06 0.0028004 0)
(0.000266775 0.00285013 0)
(0.00160988 0.00375389 0)
(0.000985436 0.00275061 0)
(0.00516693 0.00429326 0)
(-0.0012155 -0.00307047 0)
(0.0110851 -0.00192234 0)
(-0.0064833 -0.0161866 0)
(0.00963047 -0.0519064 0)
(-0.00563211 -0.0116071 0)
(0.00841405 0.00709965 0)
(0.00921428 0.00896444 0)
(0.00844661 0.00868853 0)
(0.0102316 0.00631517 0)
(0.00991447 0.00550446 0)
(0.00939972 0.00391962 0)
(0.00974896 0.00450622 0)
(0.00826251 0.00386599 0)
(0.00884675 0.0041186 0)
(0.00718437 0.00374343 0)
(0.00828704 0.00442266 0)
(0.00644361 0.00414159 0)
(0.00835633 0.00489216 0)
(0.00591346 0.00312832 0)
(0.00848913 0.00953662 0)
(0.00232591 0.00225838 0)
(0.00728779 0.0110913 0)
(-0.00119762 -0.00268103 0)
(0.0116928 -0.0489106 0)
(-0.0224915 -0.00401648 0)
(-0.0127447 -0.00217252 0)
(-0.0235414 0.00264313 0)
(-0.0118687 0.00130507 0)
(-0.0213891 0.00108721 0)
(-0.0116544 0.00240578 0)
(-0.018968 0.00120428 0)
(-0.0120712 0.00291305 0)
(-0.0161217 0.00193838 0)
(-0.0119112 0.00270253 0)
(-0.0125827 0.0022764 0)
(-0.010865 0.00263993 0)
(-0.00916835 0.00220579 0)
(-0.00808127 0.00263968 0)
(-0.00484142 0.00234652 0)
(-0.00697877 0.00623982 0)
(0.00674511 -0.00407696 0)
(-0.00377108 0.000763307 0)
(0.0165649 -0.025703 0)
(0.0139948 -0.0479543 0)
(0.00069225 0.0182654 0)
(0.0153987 0.0116827 0)
(0.0110594 0.00667638 0)
(0.0212594 0.00647713 0)
(0.0214463 0.00602135 0)
(0.0264818 0.00501883 0)
(0.0295732 0.0037819 0)
(0.0298059 0.00349861 0)
(0.0362529 0.00391679 0)
(0.0358351 0.00239526 0)
(0.0397794 0.00223643 0)
(0.0407453 0.00259806 0)
(0.0446387 0.00236125 0)
(0.0444798 0.00138501 0)
(0.0488644 0.00182795 0)
(0.0479898 0.00105926 0)
(0.0514576 0.000375175 0)
(0.0503808 0.000329922 0)
(0.043358 -0.00487978 0)
(0.0285897 -0.00704788 0)
)
;

boundaryField
{
    movingWall
    {
        type            fixedValue;
        value           uniform (1 0 0);
    }
    fixedWalls
    {
        type            noSlip;
    }
    frontAndBack
    {
        type            empty;
    }
}


// ************************************************************************* //
