/*--------------------------------*- C++ -*----------------------------------*\
| =========                 |                                                 |
| \\      /  F ield         | OpenFOAM: The Open Source CFD Toolbox           |
|  \\    /   O peration     | Version:  5.x                                   |
|   \\  /    A nd           | Web:      www.OpenFOAM.org                      |
|    \\/     M anipulation  |                                                 |
\*---------------------------------------------------------------------------*/
FoamFile
{
    version     2.0;
    format      ascii;
    class       surfaceScalarField;
    location    "16.5";
    object      phi;
}
// * * * * * * * * * * * * * * * * * * * * * * * * * * * * * * * * * * * * * //

dimensions      [0 3 -1 0 0 0 0];

internalField   nonuniform List<scalar> 
760
(
-1.2072e-06
1.2072e-06
-2.08562e-06
8.78415e-07
-2.49794e-06
4.12322e-07
-2.76643e-06
2.68487e-07
-2.84023e-06
7.37985e-08
-2.91794e-06
7.77112e-08
-2.90527e-06
-1.26717e-08
-2.93099e-06
2.57275e-08
-2.90726e-06
-2.37315e-08
-2.9397e-06
3.24339e-08
-2.93891e-06
-7.83763e-10
-2.96342e-06
2.45121e-08
-2.9747e-06
1.12737e-08
-2.98364e-06
8.94198e-09
-2.98792e-06
4.28229e-09
-2.9476e-06
-4.03201e-08
-2.86345e-06
-8.4149e-08
-2.44333e-06
-4.20119e-07
-1.6208e-06
-8.2253e-07
-1.6208e-06
-6.57278e-07
1.86448e-06
-1.04233e-06
1.26347e-06
-1.20016e-06
5.70147e-07
-1.22849e-06
2.96813e-07
-1.24896e-06
9.42745e-08
-1.26366e-06
9.24083e-08
-1.2801e-06
3.77305e-09
-1.28099e-06
2.66186e-08
-1.2911e-06
-1.36251e-08
-1.27714e-06
1.84758e-08
-1.28369e-06
5.76047e-09
-1.30453e-06
4.53579e-08
-1.35193e-06
5.86697e-08
-1.37094e-06
2.79572e-08
-1.4063e-06
3.96363e-08
-1.37178e-06
-7.4842e-08
-1.39199e-06
-6.39342e-08
-1.44994e-06
-3.62169e-07
-1.16886e-06
-1.10361e-06
-2.78966e-06
-3.13132e-07
2.17761e-06
-4.31257e-07
1.3816e-06
-3.84809e-07
5.237e-07
-3.37707e-07
2.4971e-07
-3.44591e-07
1.01158e-07
-3.43818e-07
9.16351e-08
-3.87134e-07
4.70894e-08
-4.31666e-07
7.11511e-08
-4.89328e-07
4.40367e-08
-5.45615e-07
7.47626e-08
-5.9798e-07
5.81251e-08
-6.14986e-07
6.23638e-08
-6.23509e-07
6.71933e-08
-6.17776e-07
2.22243e-08
-5.50053e-07
-2.80865e-08
-5.03452e-07
-1.21443e-07
-2.61333e-07
-3.06053e-07
-1.52072e-07
-4.7143e-07
-3.17369e-07
-9.38314e-07
-3.10703e-06
-1.2205e-07
2.29966e-06
-1.25253e-07
1.3848e-06
-4.39152e-08
4.42362e-07
-1.924e-08
2.25035e-07
-5.58744e-08
1.37793e-07
-9.55612e-08
1.31322e-07
-1.52536e-07
1.04065e-07
-1.94967e-07
1.13581e-07
-2.44365e-07
9.34352e-08
-2.80295e-07
1.10692e-07
-2.96743e-07
7.45731e-08
-3.0483e-07
7.04504e-08
-2.53421e-07
1.57842e-08
-2.61541e-07
3.03451e-08
-2.75831e-07
-1.37969e-08
-3.52534e-07
-4.47404e-08
-4.01703e-07
-2.56884e-07
-2.52162e-07
-6.2097e-07
-2.02907e-07
-9.87569e-07
-3.30994e-06
-2.52121e-08
2.32488e-06
1.12452e-08
1.34834e-06
5.2313e-08
4.01295e-07
6.51795e-08
2.12169e-07
2.38331e-08
1.79139e-07
-2.75072e-08
1.82662e-07
-7.11818e-08
1.47739e-07
-1.11355e-07
1.53755e-07
-1.36427e-07
1.18507e-07
-1.40903e-07
1.15169e-07
-1.53399e-07
8.70687e-08
-1.75513e-07
9.25649e-08
-1.45488e-07
-1.42416e-08
-2.24383e-07
1.09241e-07
-2.8313e-07
4.495e-08
-2.53739e-07
-7.41316e-08
-1.58899e-07
-3.51725e-07
2.07788e-08
-8.00648e-07
2.94688e-08
-9.96259e-07
-3.28047e-06
-7.20441e-09
2.33208e-06
1.72879e-08
1.32385e-06
3.58714e-08
3.82711e-07
-6.47897e-09
2.54519e-07
-4.92697e-08
2.2193e-07
-7.88046e-08
2.12197e-07
-1.10637e-07
1.79572e-07
-1.43e-07
1.86117e-07
-1.65827e-07
1.41334e-07
-1.51557e-07
1.00898e-07
-1.59118e-07
9.46297e-08
-2.17248e-07
1.50695e-07
-1.28799e-07
-1.0269e-07
-1.39823e-07
1.20264e-07
-1.21255e-07
2.63826e-08
-1.04096e-07
-9.12905e-08
-2.05464e-07
-2.50357e-07
-1.42317e-07
-8.63795e-07
-6.04683e-08
-1.07811e-06
-3.34094e-06
2.74876e-08
2.30459e-06
7.22017e-08
1.27913e-06
5.50708e-08
3.99842e-07
3.40014e-08
2.75588e-07
2.65981e-08
2.29333e-07
-1.9542e-08
2.58337e-07
-7.4336e-08
2.34366e-07
-8.22857e-08
1.94067e-07
-5.0963e-08
1.10012e-07
-1.00243e-07
1.50178e-07
-1.47828e-07
1.42215e-07
-1.56509e-07
1.59376e-07
-2.53851e-08
-2.33814e-07
-1.0962e-07
2.04499e-07
-8.46791e-08
1.44173e-09
-3.29607e-08
-1.43009e-07
-4.8047e-08
-2.3527e-07
7.9263e-09
-9.19768e-07
2.74654e-08
-1.09765e-06
-3.31347e-06
1.51566e-09
2.30308e-06
8.33445e-09
1.27232e-06
2.6179e-08
3.81998e-07
-1.1341e-08
3.13108e-07
-4.9922e-08
2.67914e-07
-5.73e-08
2.65715e-07
-9.13403e-08
2.68406e-07
-6.85114e-08
1.71238e-07
-2.15736e-08
6.30739e-08
-1.4714e-07
2.75745e-07
-4.2239e-07
4.17465e-07
-4.27247e-07
1.64233e-07
-1.60832e-07
-5.0023e-07
-1.99985e-07
2.43652e-07
-2.89203e-07
9.06599e-08
-2.11582e-07
-2.20631e-07
-4.09052e-08
-4.05947e-07
-9.08225e-08
-8.69851e-07
-6.7733e-08
-1.12074e-06
-3.38121e-06
3.81158e-08
2.26496e-06
6.90381e-08
1.24139e-06
1.63722e-08
4.34663e-07
2.68153e-09
3.26799e-07
-2.26526e-08
2.93248e-07
2.15751e-08
2.21487e-07
9.81884e-08
1.91793e-07
8.96797e-08
1.79747e-07
-7.65179e-08
2.29272e-07
-2.39722e-07
4.38949e-07
-3.30955e-07
5.08698e-07
-2.36275e-07
6.95534e-08
5.16088e-08
-7.88114e-07
-8.07715e-08
3.76033e-07
-1.34265e-07
1.44153e-07
-1.03414e-07
-2.51482e-07
-1.44804e-07
-3.64557e-07
-1.03199e-07
-9.11456e-07
3.76932e-08
-1.26163e-06
-3.34351e-06
3.38011e-08
2.23116e-06
3.6713e-08
1.23848e-06
8.15227e-08
3.89854e-07
7.62009e-08
3.32121e-07
-3.52631e-08
4.04712e-07
-5.4787e-08
2.41011e-07
-3.34818e-08
1.70488e-07
-1.93295e-07
3.3956e-07
-4.80687e-07
5.16664e-07
-6.58299e-07
6.16561e-07
-6.63146e-07
5.13544e-07
-4.38837e-07
-1.54756e-07
-2.37397e-07
-9.89554e-07
-2.1203e-07
3.50665e-07
-1.01381e-07
3.35047e-08
-1.73435e-07
-1.79427e-07
-2.93908e-07
-2.44084e-07
-2.99274e-07
-9.0609e-07
-5.99484e-08
-1.50095e-06
-3.40346e-06
1.01106e-08
2.22105e-06
9.59534e-09
1.239e-06
-3.06581e-08
4.30107e-07
-1.21311e-07
4.22773e-07
-2.39089e-07
5.2249e-07
-2.50117e-07
2.52039e-07
-3.28711e-07
2.49082e-07
-3.52225e-07
3.63074e-07
-3.50871e-07
5.1531e-07
-2.98912e-07
5.64602e-07
-3.41554e-07
5.56186e-07
-3.89232e-07
-1.07078e-07
-2.07117e-07
-1.17167e-06
1.25724e-07
1.7825e-08
2.3139e-07
-7.21611e-08
2.01828e-07
-1.49865e-07
6.42116e-09
-4.86777e-08
-8.56822e-08
-8.13987e-07
-4.52193e-08
-1.54142e-06
-3.44868e-06
4.05435e-08
2.18051e-06
6.48756e-08
1.21467e-06
-8.27813e-08
5.77764e-07
-2.69404e-07
6.09396e-07
-3.20447e-07
5.73534e-07
-4.05236e-07
3.36828e-07
-6.26113e-07
4.69959e-07
-6.5345e-07
3.90411e-07
-6.06475e-07
4.68334e-07
-3.824e-07
3.40528e-07
-6.88576e-08
2.42643e-07
-1.66718e-07
-9.21754e-09
-2.82173e-07
-1.05621e-06
-9.19651e-08
-1.72383e-07
1.86718e-07
-3.50844e-07
4.12856e-07
-3.76003e-07
4.89643e-07
-1.25465e-07
4.04379e-07
-7.28723e-07
8.95782e-08
-1.22662e-06
-3.3591e-06
4.81108e-09
2.1757e-06
6.87961e-09
1.2126e-06
-5.64998e-08
6.41143e-07
-1.32759e-08
5.66172e-07
8.20637e-08
4.78194e-07
-1.38865e-08
4.32778e-07
-2.17396e-07
6.73469e-07
-3.85193e-07
5.58208e-07
-4.41182e-07
5.24322e-07
-2.96237e-07
1.95584e-07
-6.31448e-08
9.55056e-09
5.25737e-08
-1.24936e-07
-9.08558e-08
-9.12784e-07
-3.84712e-08
-2.24767e-07
4.60692e-08
-4.35385e-07
-1.25153e-07
-2.04781e-07
1.01462e-07
-3.52079e-07
1.38553e-07
-7.65814e-07
1.87406e-08
-1.1068e-06
-3.34036e-06
8.12227e-09
2.16757e-06
1.15174e-08
1.2092e-06
7.51661e-08
5.77495e-07
2.25311e-07
4.16027e-07
2.41959e-07
4.61546e-07
4.13986e-07
2.60751e-07
3.93135e-07
6.9432e-07
3.317e-07
6.19643e-07
2.85254e-07
5.70768e-07
3.1561e-07
1.65228e-07
4.15213e-07
-9.0053e-08
3.72927e-07
-8.26497e-08
1.42012e-07
-6.81869e-07
2.26533e-07
-3.09288e-07
1.90266e-07
-3.99119e-07
-2.89138e-08
1.43993e-08
3.26375e-07
-7.07367e-07
2.88031e-07
-7.27471e-07
1.04397e-07
-9.2317e-07
-3.23597e-06
3.58176e-08
2.13176e-06
1.06351e-08
1.23438e-06
4.72132e-08
5.40917e-07
2.6034e-07
2.029e-07
3.58949e-07
3.62937e-07
5.02275e-07
1.17425e-07
7.92617e-07
4.03978e-07
1.07384e-06
3.38419e-07
1.1285e-06
5.16115e-07
1.12803e-06
1.65688e-07
1.20757e-06
-1.69588e-07
1.01656e-06
1.08359e-07
1.00459e-06
-6.69895e-07
1.17291e-06
-4.77614e-07
1.14279e-06
-3.69002e-07
1.2195e-06
-6.23044e-08
7.71433e-07
-2.59301e-07
1.9817e-07
-1.54208e-07
1.56189e-08
-7.40619e-07
-3.22035e-06
8.24227e-08
2.04933e-06
1.4805e-07
1.16876e-06
1.51274e-07
5.37692e-07
-1.87443e-08
3.72919e-07
2.64559e-07
7.9634e-08
4.05749e-07
-2.37651e-08
7.91525e-07
1.82029e-08
1.22169e-06
-9.17485e-08
1.35459e-06
3.83214e-07
1.37644e-06
1.43844e-07
1.33224e-06
-1.25395e-07
1.32595e-06
1.14657e-07
1.02733e-06
-3.71276e-07
8.76804e-07
-3.2709e-07
5.48351e-07
-4.05488e-08
8.37477e-09
4.77672e-07
-1.80897e-07
-7.00292e-08
-5.2522e-08
-2.82583e-07
5.55125e-08
-8.48654e-07
-3.16483e-06
1.55911e-07
1.89342e-06
1.31519e-07
1.19315e-06
2.48717e-07
4.20494e-07
3.46656e-07
2.7498e-07
3.14714e-07
1.11575e-07
4.89155e-07
-1.98206e-07
7.83197e-07
-2.75838e-07
9.09873e-07
-2.18425e-07
1.13549e-06
1.57597e-07
1.27443e-06
4.90104e-09
1.1451e-06
3.93994e-09
1.03335e-06
2.26405e-07
1.04037e-07
5.58037e-07
-5.08647e-07
2.85595e-07
-1.63387e-07
-3.85809e-07
-7.69685e-08
3.91253e-07
5.10618e-07
-6.57616e-07
4.87544e-07
-2.59508e-07
8.45325e-08
-4.45643e-07
-3.0803e-06
3.57587e-07
1.53583e-06
5.89595e-07
9.61141e-07
4.80526e-07
5.29564e-07
6.54248e-07
1.01258e-07
7.44156e-07
2.16674e-08
7.40554e-07
-1.94604e-07
7.93797e-07
-3.29081e-07
7.76496e-07
-2.01125e-07
9.49474e-07
-1.53811e-08
1.09587e-06
-1.41497e-07
1.18109e-06
-8.12762e-08
1.38809e-06
1.94081e-08
1.49089e-06
4.55237e-07
1.11818e-06
6.58305e-07
8.91558e-07
-1.59192e-07
9.86694e-07
2.96117e-07
6.91778e-07
-3.627e-07
1.20985e-07
3.11285e-07
3.59445e-07
-6.84102e-07
-2.72086e-06
4.75625e-07
1.06021e-06
7.84858e-07
6.51908e-07
9.34739e-07
3.79683e-07
7.73889e-07
2.62108e-07
6.07163e-07
1.88393e-07
3.04426e-07
1.08133e-07
-1.8041e-07
1.55754e-07
-5.1551e-07
1.33975e-07
-6.44695e-07
1.13803e-07
-8.3002e-07
4.38276e-08
-9.17256e-07
5.96036e-09
-8.72063e-07
-2.57852e-08
-4.48128e-07
3.13019e-08
1.48315e-07
6.18623e-08
-1.58942e-07
1.48065e-07
6.85059e-08
6.86696e-08
-2.43584e-07
-5.061e-08
1.61004e-07
-9.33035e-08
7.53053e-07
-1.27615e-06
-1.96781e-06
1.06021e-06
1.71212e-06
2.0918e-06
2.35391e-06
2.5423e-06
2.65044e-06
2.80619e-06
2.94016e-06
3.05397e-06
3.0978e-06
3.10376e-06
3.07797e-06
3.10927e-06
3.17113e-06
3.3192e-06
3.38787e-06
3.33726e-06
3.24396e-06
1.96781e-06
)
;

boundaryField
{
    movingWall
    {
        type            calculated;
        value           uniform 0;
    }
    fixedWalls
    {
        type            calculated;
        value           uniform 0;
    }
    frontAndBack
    {
        type            empty;
        value           nonuniform 0();
    }
}


// ************************************************************************* //
