/*--------------------------------*- C++ -*----------------------------------*\
| =========                 |                                                 |
| \\      /  F ield         | OpenFOAM: The Open Source CFD Toolbox           |
|  \\    /   O peration     | Version:  5.x                                   |
|   \\  /    A nd           | Web:      www.OpenFOAM.org                      |
|    \\/     M anipulation  |                                                 |
\*---------------------------------------------------------------------------*/
FoamFile
{
    version     2.0;
    format      ascii;
    class       volVectorField;
    location    "16.5";
    object      U;
}
// * * * * * * * * * * * * * * * * * * * * * * * * * * * * * * * * * * * * * //

dimensions      [0 1 -1 0 0 0 0];

internalField   nonuniform List<vector> 
400
(
(-0.0157534 0.00918588 0)
(-0.036743 0.0086175 0)
(-0.0471009 0.00284865 0)
(-0.0528365 0.0024546 0)
(-0.0556471 4.53191e-05 0)
(-0.0577168 8.07456e-05 0)
(-0.0575574 -0.000791721 0)
(-0.0592014 -0.000350688 0)
(-0.0569882 -0.0012453 0)
(-0.0599582 -0.000186326 0)
(-0.0570218 -0.0010872 0)
(-0.0603357 -0.000482258 0)
(-0.0584922 -0.000620064 0)
(-0.0606686 -0.000925671 0)
(-0.0607753 -0.0007389 0)
(-0.059971 -0.00255008 0)
(-0.0588758 -0.00301333 0)
(-0.0534456 -0.00778937 0)
(-0.0515709 -0.0125546 0)
(-0.00395788 -0.0222435 0)
(-0.008134 0.0345193 0)
(-0.020887 0.0231085 0)
(-0.0209707 0.0116284 0)
(-0.0258817 0.00710823 0)
(-0.022226 0.00239148 0)
(-0.0282807 0.00264189 0)
(-0.0212661 0.000200309 0)
(-0.0301341 0.001221 0)
(-0.0214251 0.000181803 0)
(-0.029283 0.00146504 0)
(-0.0229646 0.00102854 0)
(-0.0270306 0.00153975 0)
(-0.0263463 0.000959506 0)
(-0.0270561 0.00117817 0)
(-0.0289784 0.000796023 0)
(-0.027598 0.000435129 0)
(-0.0273036 -0.00128857 0)
(-0.028453 -0.0119086 0)
(-0.0344253 -0.0250206 0)
(-0.00554399 -0.0499391 0)
(-0.00579006 0.0411281 0)
(-0.00845207 0.0269179 0)
(-0.00772815 0.0121985 0)
(-0.00814194 0.00518454 0)
(-0.00469833 0.00176564 0)
(-0.00939728 0.00138907 0)
(-0.00434003 -5.80426e-07 0)
(-0.0108469 2.14028e-05 0)
(-0.00673875 -0.000634879 0)
(-0.0123638 -0.000652333 0)
(-0.0099729 -0.000738483 0)
(-0.0133691 0.000170943 0)
(-0.0118927 0.00159943 0)
(-0.0123045 0.000125299 0)
(-0.0135542 0.00108997 0)
(-0.00703446 -0.0027735 0)
(-0.0145792 -0.000720956 0)
(0.00495537 -0.000788204 0)
(-0.0122079 -0.0155691 0)
(0.00192568 -0.0593777 0)
(-0.00175518 0.0476157 0)
(-0.00403015 0.0297476 0)
(-0.000383015 0.00935669 0)
(-0.00149456 0.00534414 0)
(0.000817144 0.00242124 0)
(-0.0031345 0.0023337 0)
(-0.000736405 0.00189279 0)
(-0.00522052 0.00260898 0)
(-0.00277467 0.00224514 0)
(-0.00671847 0.00342478 0)
(-0.00482018 0.00288621 0)
(-0.00661771 0.00222163 0)
(-0.00602504 0.000908273 0)
(-0.00369706 0.00063417 0)
(-0.0073063 -0.0023555 0)
(-0.00314815 -0.00272844 0)
(-0.0118722 -0.0117143 0)
(-0.00281568 -0.0177007 0)
(-0.00875589 -0.0235715 0)
(0.00210049 -0.0637149 0)
(-0.00119222 0.0455996 0)
(-0.000120856 0.0268771 0)
(0.000720973 0.00897355 0)
(0.00119879 0.00361932 0)
(0.00155283 0.00322457 0)
(-0.000653755 0.00285864 0)
(-0.000438312 0.00240394 0)
(-0.00230135 0.0021417 0)
(-0.00234626 0.00167808 0)
(-0.00284325 0.0012734 0)
(-0.00307636 0.000276947 0)
(-0.00273747 0.000797079 0)
(-0.00457671 -0.000190751 0)
(-0.000967024 0.000668205 0)
(-0.00858917 0.00187265 0)
(-0.00186954 0.00121555 0)
(-0.00930291 0.00167093 0)
(0.00383822 -0.00740367 0)
(-0.00335677 -0.0140062 0)
(0.00494998 -0.0644817 0)
(0.000279288 0.0490961 0)
(-0.000659751 0.0283177 0)
(0.00137571 0.00687067 0)
(0.000166011 0.00514024 0)
(-0.000470285 0.00379261 0)
(-0.00144254 0.004435 0)
(-0.00181694 0.00333876 0)
(-0.00247999 0.00382249 0)
(-0.00341262 0.00296398 0)
(-0.00301552 0.00308816 0)
(-0.00319373 0.00298339 0)
(-0.00309047 0.00258977 0)
(-0.00548506 -0.000459578 0)
(0.00062035 0.00390437 0)
(-0.00676164 -0.000225053 0)
(0.00253808 -0.00438327 0)
(-0.00740027 -0.0161106 0)
(0.000257545 -0.0241599 0)
(-0.00682857 -0.0272839 0)
(0.00491621 -0.0667034 0)
(-0.000877201 0.0441334 0)
(0.0018482 0.0237087 0)
(0.00115097 0.00842232 0)
(0.000989077 0.00466352 0)
(0.000436079 0.00516091 0)
(0.000582729 0.00388359 0)
(-0.00135198 0.00399075 0)
(-0.00155731 0.00379856 0)
(-0.00189085 0.0028088 0)
(-4.57539e-05 0.00117721 0)
(-0.00396402 0.00117225 0)
(-0.00176088 0.0039997 0)
(-0.00436499 -0.00337848 0)
(0.00318123 0.000565418 0)
(-0.00775816 0.00142281 0)
(0.00481213 0.000885626 0)
(-0.00650219 0.00589468 0)
(0.00504021 -0.0105291 0)
(-0.00488001 -0.0142555 0)
(0.00621089 -0.0656146 0)
(5.35205e-05 0.0484563 0)
(1.52302e-05 0.0282742 0)
(0.000299038 0.00801778 0)
(0.000754868 0.00679496 0)
(-0.00124728 0.0041775 0)
(-0.000653949 0.00669267 0)
(-0.00176552 0.0053282 0)
(-0.00183274 0.00386517 0)
(-0.00104931 0.001608 0)
(0.000311803 0.0046762 0)
(-0.00649182 0.00399706 0)
(-0.0108374 0.00175605 0)
(-0.0053671 -0.00568404 0)
(-0.00136426 0.0082672 0)
(-0.00722759 -0.00134569 0)
(-0.00354677 -0.00635938 0)
(-0.00555838 -0.0147443 0)
(0.00421265 -0.0267945 0)
(-0.00836852 -0.0312751 0)
(0.00611233 -0.0673663 0)
(-0.000842765 0.043969 0)
(0.00225679 0.0216641 0)
(0.000586948 0.00660646 0)
(6.99584e-05 0.00516567 0)
(2.89605e-05 0.00608227 0)
(-0.000850684 0.00345871 0)
(0.00163546 0.00505574 0)
(0.00233421 0.00274319 0)
(0.00107053 0.000828162 0)
(-0.00393241 0.00669906 0)
(-0.005396 0.01367 0)
(-0.00803843 0.00544456 0)
(-0.00116801 -0.0148326 0)
(0.0031055 0.000781235 0)
(-0.00659047 0.00461034 0)
(0.00166271 -0.00296679 0)
(-0.00615096 -0.00195341 0)
(0.000820259 -0.00710178 0)
(-0.00528961 -0.0119036 0)
(0.00693233 -0.0657513 0)
(-8.18005e-05 0.0463877 0)
(0.0013454 0.028916 0)
(0.000259151 0.0116045 0)
(0.00279625 0.00847714 0)
(0.000318337 0.00625836 0)
(-0.00152679 0.00596041 0)
(-0.00095033 0.00299536 0)
(-0.000238598 0.0048175 0)
(-0.00777534 0.00860393 0)
(-0.0111687 0.010314 0)
(-0.0150936 0.00593478 0)
(-0.0117366 -0.00284115 0)
(-0.00530852 -0.0157225 0)
(-0.00460582 0.0144148 0)
(-0.00392167 0.00172963 0)
(0.000173752 -0.00652217 0)
(-0.00762285 -0.0115949 0)
(-0.00356209 -0.0285733 0)
(-0.00856484 -0.0377246 0)
(0.00591587 -0.0707441 0)
(-0.000318578 0.0434865 0)
(0.000769722 0.0201895 0)
(-0.000462664 0.00326225 0)
(-0.000602054 0.00430998 0)
(-0.00459681 0.00928285 0)
(-0.00434308 0.00311213 0)
(-0.00624904 0.00334859 0)
(-0.00702383 0.00818986 0)
(-0.00743996 0.011951 0)
(-0.00602518 0.0144707 0)
(-0.00655751 0.0134424 0)
(-0.00688859 -0.00390027 0)
(-0.00948725 -0.0257259 0)
(0.00229145 -0.000916445 0)
(0.00183167 -0.000778316 0)
(0.0086954 -0.00140475 0)
(-0.00198762 0.000253485 0)
(0.00242539 -0.00997881 0)
(-0.0064822 -0.025185 0)
(0.00508052 -0.0672139 0)
(-0.000648881 0.0445045 0)
(0.00207935 0.0284129 0)
(0.000734551 0.0145416 0)
(-0.00384527 0.0129633 0)
(-0.00763995 0.0121668 0)
(-0.00431972 0.00733651 0)
(-0.0123652 0.00729691 0)
(-0.0134241 0.00677404 0)
(-0.0134112 0.00924606 0)
(-0.0102572 0.00895559 0)
(-0.00406576 0.0100674 0)
(0.00070173 -0.000110281 0)
(-0.00735432 -0.0198064 0)
(-0.00239308 0.00187508 0)
(-0.00217958 -0.00151854 0)
(0.0107342 -0.00385498 0)
(0.00411713 -0.00155455 0)
(0.0170843 -0.0203894 0)
(-0.00211928 -0.0339789 0)
(0.00622659 -0.0685014 0)
(0.00118459 0.0433399 0)
(-0.000929871 0.0217032 0)
(0.00111662 0.00846337 0)
(-0.00301212 0.0113113 0)
(0.0022699 0.0101621 0)
(0.00166385 0.00631241 0)
(-0.00240409 0.0105827 0)
(-0.00573892 0.00852738 0)
(-0.0106337 0.00864614 0)
(-0.0071159 0.00423306 0)
(-0.00338165 -0.000686622 0)
(9.51652e-05 -0.000315189 0)
(0.00249049 -0.0226269 0)
(-0.00540757 -0.00938501 0)
(0.00327228 -0.0137338 0)
(-0.000869465 -0.0118132 0)
(-0.00489743 -0.00326958 0)
(0.00963208 -0.00970362 0)
(-0.00478008 -0.0141991 0)
(0.00575717 -0.0645995 0)
(-0.00147509 0.0430717 0)
(0.00187231 0.0255443 0)
(-0.00157021 0.0166282 0)
(0.00512654 0.0115704 0)
(0.00282145 0.00890498 0)
(0.00795517 0.0102486 0)
(0.00765373 0.0170064 0)
(0.00851422 0.012841 0)
(0.0042398 0.0119301 0)
(0.0058427 0.00273006 0)
(0.00866434 0.000988519 0)
(0.00581404 -0.00503685 0)
(0.010649 -0.0134182 0)
(-0.0045038 0.000167168 0)
(0.0127798 -0.0021053 0)
(-0.00452547 0.0041478 0)
(0.00289603 -0.0115857 0)
(0.0118845 -0.0199109 0)
(-0.00167132 -0.0305444 0)
(0.00637257 -0.0674965 0)
(0.00132408 0.0427423 0)
(0.000266663 0.023154 0)
(-1.97092e-05 0.00632377 0)
(0.00236188 0.00466375 0)
(0.00691975 0.0101807 0)
(0.00886516 0.000733121 0)
(0.00980774 0.0107245 0)
(0.0233764 0.0132504 0)
(0.0179583 0.0109923 0)
(0.0251792 0.00449322 0)
(0.0229044 -0.00461117 0)
(0.0223698 0.00199022 0)
(0.0205884 -0.0136149 0)
(0.021227 -0.0124498 0)
(0.0228608 -0.0153164 0)
(0.0252348 -0.0038658 0)
(0.0206558 -0.0185216 0)
(0.0128643 -0.00980712 0)
(-0.00568705 -0.00549031 0)
(0.00614675 -0.064393 0)
(-0.00143337 0.0424887 0)
(0.00453942 0.0260658 0)
(0.000852669 0.0161828 0)
(0.00600702 0.00398151 0)
(-0.00709926 0.00358653 0)
(0.0190449 0.00434893 0)
(-0.00389186 0.00627175 0)
(0.0346111 -0.000394792 0)
(0.0160172 0.0110488 0)
(0.0356187 0.00273766 0)
(0.0219745 -0.00157256 0)
(0.0290894 0.00258163 0)
(0.0255794 -0.0146737 0)
(0.0176324 -0.0046509 0)
(0.014289 0.0016549 0)
(0.0100946 0.00224578 0)
(-0.00996638 0.00997078 0)
(0.00206288 0.00390588 0)
(-0.00365095 -0.0220575 0)
(0.00541123 -0.0670186 0)
(0.00252898 0.0384466 0)
(0.00332229 0.020586 0)
(0.00129158 0.00410997 0)
(0.00954648 0.0100128 0)
(0.00368595 1.12465e-05 0)
(0.00948172 -0.0055402 0)
(0.00980388 -0.00568973 0)
(0.0213872 -0.00295174 0)
(0.0148627 0.00314217 0)
(0.0294065 0.00260443 0)
(0.0206537 -0.00373989 0)
(0.0255021 0.00287019 0)
(0.0195892 0.00215043 0)
(-0.0169462 -0.0108918 0)
(-0.000655536 -0.0037917 0)
(-0.00661553 0.0140099 0)
(0.00344057 -0.0137432 0)
(0.0183323 -0.0166536 0)
(-0.00125201 -0.0161473 0)
(0.00582623 -0.0604604 0)
(2.27571e-05 0.0365078 0)
(0.0127732 0.0250709 0)
(0.0118741 0.0136974 0)
(0.00793779 0.00121058 0)
(0.0171344 0.00384944 0)
(0.01397 -0.00284597 0)
(0.0155755 -0.00589976 0)
(0.0145313 -0.00634156 0)
(0.0180372 0.00388936 0)
(0.0192545 -0.00230124 0)
(0.0251591 0.00401665 0)
(0.0194387 0.00476789 0)
(0.0379403 0.0171389 0)
(0.0222559 0.0238584 0)
(0.0247698 -0.00982397 0)
(0.00936362 0.00407548 0)
(0.0274725 -0.0105393 0)
(0.00222784 0.00847942 0)
(0.00284856 0.00216859 0)
(0.0125869 -0.0607622 0)
(0.00823298 0.0264778 0)
(0.00940984 0.0151947 0)
(0.0202215 0.00639251 0)
(0.0189777 0.00328112 0)
(0.0110153 -0.00264217 0)
(0.0146022 -0.00376972 0)
(-0.00225457 -0.00608379 0)
(-0.00590013 -0.00195344 0)
(-0.0134219 -0.00477558 0)
(-0.0129836 -0.00446208 0)
(-0.0218298 -0.00832997 0)
(-0.0142035 -0.00439134 0)
(-0.0230697 -0.000365091 0)
(0.00821761 0.00497625 0)
(-0.00345627 0.00307918 0)
(-0.00406226 0.00608978 0)
(0.00770767 -0.00341246 0)
(-0.0193868 0.000828598 0)
(0.0247872 -0.0351916 0)
(0.0105164 -0.0569486 0)
(0.00853105 0.0183945 0)
(0.0319646 0.0127384 0)
(0.0341676 0.0102479 0)
(0.0491501 0.00675232 0)
(0.0463728 0.00928521 0)
(0.0561428 0.00718338 0)
(0.0523203 0.0114527 0)
(0.0584142 0.00774454 0)
(0.0578447 0.00982462 0)
(0.0617411 0.00669037 0)
(0.0631129 0.0088809 0)
(0.0634036 0.00401154 0)
(0.0620602 0.0023909 0)
(0.0627917 -0.00318678 0)
(0.0625234 0.00225811 0)
(0.0664991 -0.002781 0)
(0.0657144 0.00113191 0)
(0.0666687 -0.00286599 0)
(0.0553782 -0.0078965 0)
(0.034533 -0.00995725 0)
)
;

boundaryField
{
    movingWall
    {
        type            fixedValue;
        value           uniform (1 0 0);
    }
    fixedWalls
    {
        type            noSlip;
    }
    frontAndBack
    {
        type            empty;
    }
}


// ************************************************************************* //
