/*--------------------------------*- C++ -*----------------------------------*\
| =========                 |                                                 |
| \\      /  F ield         | OpenFOAM: The Open Source CFD Toolbox           |
|  \\    /   O peration     | Version:  5.x                                   |
|   \\  /    A nd           | Web:      www.OpenFOAM.org                      |
|    \\/     M anipulation  |                                                 |
\*---------------------------------------------------------------------------*/
FoamFile
{
    version     2.0;
    format      ascii;
    class       volScalarField;
    location    "11.6";
    object      p;
}
// * * * * * * * * * * * * * * * * * * * * * * * * * * * * * * * * * * * * * //

dimensions      [0 2 -2 0 0 0 0];

internalField   nonuniform List<scalar> 
400
(
-9.67967e-09
-0.000493534
-0.000839058
-0.00106187
-0.00115366
-0.00121603
-0.00122794
-0.00124026
-0.00125319
-0.0012347
-0.00122264
-0.00121512
-0.00119989
-0.00119618
-0.0012121
-0.0011719
-0.0010424
-0.000776326
-0.00060291
0.000354783
-0.000616038
-0.000911805
-0.00108733
-0.00117278
-0.00122258
-0.00123243
-0.0012476
-0.00124295
-0.00126292
-0.00123705
-0.00121854
-0.00121023
-0.00120422
-0.00118909
-0.00121249
-0.00122576
-0.00124068
-0.00111927
-0.00105391
-0.000396425
-0.000821446
-0.00109824
-0.00117399
-0.00120995
-0.00123304
-0.00123756
-0.00124522
-0.00124058
-0.00125158
-0.00123263
-0.00123465
-0.00121544
-0.00122654
-0.00121306
-0.00123184
-0.00122061
-0.00122728
-0.00117534
-0.00110948
-0.000840595
-0.0010511
-0.00119892
-0.00122089
-0.00122528
-0.00123583
-0.00123645
-0.00124366
-0.00124071
-0.00124525
-0.00123464
-0.00122998
-0.00121821
-0.00122005
-0.00120161
-0.00122491
-0.0012122
-0.00122185
-0.00121668
-0.00125315
-0.00110639
-0.00117397
-0.00121585
-0.00122141
-0.00121909
-0.00122691
-0.00123382
-0.0012412
-0.0012404
-0.00124545
-0.00123343
-0.00123951
-0.00122016
-0.0012333
-0.0012159
-0.00123421
-0.00123039
-0.00123831
-0.00122778
-0.00122024
-0.00116251
-0.0012051
-0.00122116
-0.00123889
-0.00123254
-0.00123854
-0.00124224
-0.00124823
-0.001247
-0.00124794
-0.00123791
-0.00123712
-0.00122335
-0.00122574
-0.00121074
-0.0012205
-0.0012067
-0.00122851
-0.00119858
-0.0012321
-0.00120474
-0.00123175
-0.00123673
-0.00121849
-0.0012264
-0.00123644
-0.00124733
-0.00125392
-0.0012553
-0.00125465
-0.00124346
-0.00124651
-0.00122837
-0.00123768
-0.00122121
-0.00123483
-0.00122625
-0.00123565
-0.00123259
-0.00124106
-0.00121151
-0.00120215
-0.00120021
-0.00121698
-0.00124465
-0.00126557
-0.00127808
-0.00127986
-0.00127626
-0.00126535
-0.00125174
-0.00124598
-0.00122923
-0.00122872
-0.00121367
-0.00122238
-0.00120081
-0.00122317
-0.00118905
-0.00120873
-0.00120381
-0.00124185
-0.00128038
-0.00126454
-0.00130347
-0.00132288
-0.00133259
-0.00132599
-0.00130734
-0.00128343
-0.00126746
-0.00125857
-0.00123847
-0.0012398
-0.00122014
-0.0012314
-0.00121348
-0.00122892
-0.00120865
-0.00123258
-0.00119808
-0.00131889
-0.00132451
-0.00132463
-0.00139021
-0.00145491
-0.00148109
-0.00143198
-0.00136643
-0.00131109
-0.00127761
-0.00125977
-0.00123328
-0.0012291
-0.0012107
-0.00122092
-0.0011968
-0.00121118
-0.0011687
-0.0011901
-0.0011702
-0.00132672
-0.00135792
-0.00141025
-0.00155495
-0.00167104
-0.00172991
-0.00165118
-0.00148867
-0.00136385
-0.00130176
-0.00127453
-0.0012453
-0.00124017
-0.0012169
-0.0012267
-0.00119142
-0.00122857
-0.001184
-0.00122223
-0.00114927
-0.00137986
-0.00142879
-0.0015642
-0.00174302
-0.00193845
-0.00207454
-0.00194818
-0.00163509
-0.00139535
-0.00130501
-0.00126246
-0.00123029
-0.00122079
-0.00122959
-0.0012329
-0.00114759
-0.00117301
-0.00114542
-0.00115471
-0.00115411
-0.0013698
-0.00144648
-0.00161649
-0.00183169
-0.00202998
-0.00214347
-0.0020493
-0.00170434
-0.00144258
-0.00133273
-0.00126869
-0.00123727
-0.00122342
-0.00123807
-0.00124754
-0.00115785
-0.0012219
-0.00118824
-0.0012279
-0.00117815
-0.00124561
-0.00136913
-0.00154972
-0.00174466
-0.00190972
-0.00206973
-0.00199134
-0.00160944
-0.0014147
-0.00132329
-0.00128841
-0.00127475
-0.00124196
-0.0012205
-0.00120168
-0.001105
-0.00113121
-0.00112617
-0.0011498
-0.00115473
-0.00104036
-0.00117886
-0.00140202
-0.00157721
-0.00170773
-0.00182391
-0.00175499
-0.00147423
-0.00121589
-0.00113602
-0.00126347
-0.00129875
-0.00120138
-0.00124908
-0.00118903
-0.0011796
-0.00124375
-0.00117591
-0.00129066
-0.00113844
-0.000765991
-0.00099712
-0.00114495
-0.00126515
-0.00137044
-0.00139982
-0.00142921
-0.00139113
-0.00136372
-0.00142619
-0.00132168
-0.00118365
-0.00107741
-0.00106336
-0.00108232
-0.00103642
-0.0010674
-0.00106907
-0.00106004
-0.00104858
-0.000745147
-0.000940058
-0.000957108
-0.0010728
-0.00115315
-0.00113115
-0.00120264
-0.00129733
-0.00139694
-0.00127749
-0.00126214
-0.00120429
-0.00113481
-0.00122393
-0.00115514
-0.00120811
-0.0013174
-0.00108353
-0.00127758
-0.00101482
-0.000851523
-0.00106305
-0.000925216
-0.000979392
-0.0010867
-0.00112876
-0.00119189
-0.00123471
-0.0012433
-0.00122804
-0.00120549
-0.00114383
-0.0011287
-0.00112166
-0.00112349
-0.00124734
-0.00120446
-0.00100738
-0.00100203
-0.000763289
-0.000883121
-0.000985386
-0.000909957
-0.000990645
-0.00104757
-0.0010341
-0.00109625
-0.00116126
-0.00122743
-0.00125391
-0.00123361
-0.00117242
-0.0012288
-0.00107661
-0.00122653
-0.00120542
-0.00108159
-0.00132937
-0.000949623
-0.000597379
-0.000998482
-0.000917863
-0.000867768
-0.00103251
-0.00107083
-0.00112592
-0.00116853
-0.00119313
-0.00118814
-0.00117263
-0.00114824
-0.0011234
-0.00109639
-0.001074
-0.00111442
-0.00118352
-0.00115153
-0.000886837
-0.000394903
0.00090222
)
;

boundaryField
{
    movingWall
    {
        type            zeroGradient;
    }
    fixedWalls
    {
        type            zeroGradient;
    }
    frontAndBack
    {
        type            empty;
    }
}


// ************************************************************************* //
