/*--------------------------------*- C++ -*----------------------------------*\
| =========                 |                                                 |
| \\      /  F ield         | OpenFOAM: The Open Source CFD Toolbox           |
|  \\    /   O peration     | Version:  5.x                                   |
|   \\  /    A nd           | Web:      www.OpenFOAM.org                      |
|    \\/     M anipulation  |                                                 |
\*---------------------------------------------------------------------------*/
FoamFile
{
    version     2.0;
    format      ascii;
    class       surfaceScalarField;
    location    "11.6";
    object      phi;
}
// * * * * * * * * * * * * * * * * * * * * * * * * * * * * * * * * * * * * * //

dimensions      [0 3 -1 0 0 0 0];

internalField   nonuniform List<scalar> 
760
(
-9.85487e-07
9.85488e-07
-1.80253e-06
8.17043e-07
-2.06793e-06
2.654e-07
-2.26909e-06
2.0116e-07
-2.31814e-06
4.90519e-08
-2.37064e-06
5.2503e-08
-2.37372e-06
3.07473e-09
-2.40706e-06
3.33391e-08
-2.41144e-06
4.38588e-09
-2.37857e-06
-3.28746e-08
-2.38817e-06
9.60242e-09
-2.37393e-06
-1.42381e-08
-2.39919e-06
2.52554e-08
-2.37569e-06
-2.34981e-08
-2.40641e-06
3.07195e-08
-2.35778e-06
-4.86323e-08
-2.25693e-06
-1.00846e-07
-1.901e-06
-3.55934e-07
-1.23693e-06
-6.64072e-07
-1.23693e-06
-7.1133e-07
1.69682e-06
-9.17055e-07
1.02277e-06
-1.01836e-06
3.66701e-07
-1.03642e-06
2.19225e-07
-1.04421e-06
5.6843e-08
-1.05133e-06
5.96165e-08
-1.04953e-06
1.27914e-09
-1.02934e-06
1.31525e-08
-1.01525e-06
-9.70559e-09
-1.00008e-06
-4.80458e-08
-9.82806e-07
-7.67273e-09
-9.52487e-07
-4.4557e-08
-9.40779e-07
1.35472e-08
-9.36805e-07
-2.74722e-08
-9.73426e-07
6.73404e-08
-9.95609e-07
-2.64497e-08
-1.06658e-06
-2.98711e-08
-1.08114e-06
-3.41376e-07
-9.52942e-07
-7.92271e-07
-2.18987e-06
-2.83366e-07
1.98018e-06
-3.92923e-07
1.13233e-06
-3.69302e-07
3.4308e-07
-3.47224e-07
1.97147e-07
-3.36229e-07
4.5848e-08
-3.24274e-07
4.76618e-08
-3.03188e-07
-1.98064e-08
-2.84623e-07
-5.41256e-09
-2.65045e-07
-2.92842e-08
-2.55016e-07
-5.80749e-08
-2.24484e-07
-3.82048e-08
-2.25562e-07
-4.34783e-08
-2.06623e-07
-5.39244e-09
-2.27395e-07
-6.69975e-09
-2.39841e-07
7.97866e-08
-2.72938e-07
6.64701e-09
-2.3836e-07
-6.44497e-08
-1.34932e-07
-4.44804e-07
-2.14752e-07
-7.12451e-07
-2.40462e-06
-1.29416e-07
2.1096e-06
-1.4647e-07
1.14938e-06
-1.22892e-07
3.19501e-07
-1.11865e-07
1.8612e-07
-1.63837e-07
9.78198e-08
-1.85934e-07
6.97589e-08
-1.99924e-07
-5.81578e-09
-2.08026e-07
2.68961e-09
-2.0439e-07
-3.29204e-08
-2.13539e-07
-4.89261e-08
-2.1522e-07
-3.65235e-08
-2.18617e-07
-4.00813e-08
-2.30396e-07
6.38605e-09
-2.12067e-07
-2.50284e-08
-2.01074e-07
6.87933e-08
-1.03525e-07
-9.09014e-08
-1.02106e-07
-6.5869e-08
-2.48281e-07
-2.98629e-07
-2.3346e-07
-7.27272e-07
-2.63808e-06
-6.36205e-08
2.17322e-06
-1.01432e-08
1.0959e-06
-2.88318e-08
3.3819e-07
-9.4283e-08
2.51572e-07
-1.72241e-07
1.75778e-07
-2.1726e-07
1.14778e-07
-2.38737e-07
1.56611e-08
-2.33263e-07
-2.78448e-09
-2.09251e-07
-5.69322e-08
-1.91893e-07
-6.62844e-08
-1.57322e-07
-7.10946e-08
-1.19735e-07
-7.76685e-08
-7.28248e-08
-4.05239e-08
-1.34922e-08
-8.4361e-08
5.05005e-08
4.80062e-09
1.28937e-07
-1.69338e-07
1.15214e-07
-5.21458e-08
7.38923e-08
-2.57307e-07
3.45497e-08
-6.87929e-07
-2.60353e-06
1.51398e-08
2.15808e-06
-1.11736e-08
1.12222e-06
-1.18147e-07
4.45163e-07
-1.63e-07
2.96424e-07
-2.2266e-07
2.35438e-07
-2.54577e-07
1.46695e-07
-2.64666e-07
2.57507e-08
-2.52773e-07
-1.46774e-08
-2.27647e-07
-8.20581e-08
-2.05317e-07
-8.86144e-08
-1.85602e-07
-9.08101e-08
-1.58302e-07
-1.04968e-07
-1.44527e-07
-5.42987e-08
-1.14934e-07
-1.13955e-07
-9.56274e-08
-1.45058e-08
-1.13077e-07
-1.51889e-07
-7.02316e-08
-9.49907e-08
-6.10041e-08
-2.66535e-07
-6.9753e-08
-6.79181e-07
-2.67328e-06
8.59092e-09
2.14949e-06
8.62114e-08
1.0446e-06
-4.89621e-08
5.80337e-07
-2.00065e-07
4.47527e-07
-2.94325e-07
3.29699e-07
-3.39167e-07
1.91536e-07
-3.2876e-07
1.53436e-08
-3.00746e-07
-4.26912e-08
-2.46243e-07
-1.36561e-07
-2.03468e-07
-1.3139e-07
-1.45746e-07
-1.48531e-07
-1.02947e-07
-1.47768e-07
-4.59057e-08
-1.1134e-07
7.17526e-09
-1.67036e-07
5.13389e-08
-5.86694e-08
1.0885e-07
-2.094e-07
9.74997e-08
-8.36407e-08
5.38689e-08
-2.22904e-07
1.09951e-08
-6.36307e-07
-2.66229e-06
2.7488e-08
2.122e-06
-3.29228e-08
1.10501e-06
-1.9865e-07
7.46064e-07
-3.64702e-07
6.13579e-07
-4.64467e-07
4.29463e-07
-4.77312e-07
2.04382e-07
-4.11927e-07
-5.00415e-08
-3.61028e-07
-9.35904e-08
-2.91551e-07
-2.06037e-07
-2.38296e-07
-1.84646e-07
-1.93875e-07
-1.92952e-07
-1.59105e-07
-1.82538e-07
-1.21425e-07
-1.4902e-07
-1.08002e-07
-1.80458e-07
-6.68525e-08
-9.98191e-08
-6.45428e-08
-2.1171e-07
-5.82471e-08
-8.99364e-08
1.15093e-09
-2.82302e-07
2.1185e-08
-6.56341e-07
-2.6411e-06
-1.04401e-07
2.2264e-06
-2.18976e-07
1.21958e-06
-3.72008e-07
8.99096e-07
-5.0948e-07
7.51051e-07
-6.70039e-07
5.90022e-07
-6.64561e-07
1.98904e-07
-5.12156e-07
-2.02447e-07
-3.8512e-07
-2.20626e-07
-2.62408e-07
-3.28749e-07
-2.1182e-07
-2.35235e-07
-1.3834e-07
-2.66432e-07
-1.06843e-07
-2.14034e-07
-5.49667e-08
-2.00896e-07
-4.58265e-08
-1.89598e-07
3.33918e-08
-1.79037e-07
1.16083e-07
-2.94401e-07
9.50404e-08
-6.88935e-08
6.06135e-08
-2.47875e-07
-2.44657e-08
-5.71262e-07
-2.66557e-06
4.45305e-08
2.18187e-06
-1.49828e-07
1.41394e-06
-4.23793e-07
1.17306e-06
-7.33549e-07
1.06081e-06
-9.13515e-07
7.69989e-07
-9.18921e-07
2.0431e-07
-7.54063e-07
-3.67305e-07
-4.7363e-07
-5.01059e-07
-2.62271e-07
-5.40108e-07
-2.19039e-07
-2.78466e-07
-1.59627e-07
-3.25845e-07
-1.40704e-07
-2.32957e-07
-1.02245e-07
-2.39355e-07
-1.24794e-07
-1.6705e-07
-4.77136e-08
-2.56118e-07
-9.257e-09
-3.32858e-07
-3.13605e-08
-4.679e-08
1.67843e-08
-2.9602e-07
3.85245e-08
-5.93002e-07
-2.62704e-06
-4.45523e-08
2.22642e-06
-2.54239e-07
1.62363e-06
-5.96202e-07
1.51502e-06
-8.31874e-07
1.29648e-06
-8.84147e-07
8.22262e-07
-9.1857e-07
2.38734e-07
-7.98139e-07
-4.87736e-07
-4.75097e-07
-8.24101e-07
-1.99586e-07
-8.1562e-07
-1.15775e-07
-3.62277e-07
-3.13448e-08
-4.10275e-07
-3.43041e-08
-2.29998e-07
-7.38425e-08
-1.99817e-07
-1.54645e-07
-8.62473e-08
-6.39724e-08
-3.4679e-07
-8.1465e-08
-3.15365e-07
3.39236e-08
-1.62179e-07
1.42931e-07
-4.05027e-07
-2.11246e-08
-4.28947e-07
-2.64817e-06
1.46108e-08
2.21181e-06
-1.68933e-07
1.80717e-06
-3.16493e-07
1.66258e-06
-3.973e-07
1.37729e-06
-5.10282e-07
9.35244e-07
-5.82367e-07
3.10819e-07
-4.78533e-07
-5.91569e-07
-2.5122e-07
-1.05141e-06
-8.03786e-08
-9.86462e-07
-1.36452e-09
-4.41291e-07
5.08527e-09
-4.16725e-07
-5.9315e-08
-1.65598e-07
-9.57611e-08
-1.63371e-07
-2.17898e-07
3.58899e-08
-1.33602e-07
-4.31086e-07
-1.43159e-07
-3.05809e-07
-1.14796e-07
-1.90541e-07
-2.04811e-08
-4.99342e-07
3.70437e-08
-4.86471e-07
-2.61113e-06
1.27267e-07
2.08455e-06
1.6264e-07
1.7718e-06
6.49253e-08
1.7603e-06
1.71289e-07
1.27092e-06
2.08036e-07
8.98498e-07
2.42804e-07
2.7605e-07
2.07584e-07
-5.56349e-07
1.56362e-07
-1.00019e-06
2.91746e-07
-1.12185e-06
4.64018e-07
-6.13563e-07
5.14557e-07
-4.67263e-07
3.7772e-07
-2.8761e-08
3.44194e-07
-1.29845e-07
3.60714e-07
1.93704e-08
1.63118e-07
-2.3349e-07
1.45286e-08
-1.5722e-07
-6.91154e-08
-1.06897e-07
-1.75662e-07
-3.92795e-07
-7.07029e-08
-5.91431e-07
-2.68183e-06
1.90621e-07
1.89392e-06
3.59164e-07
1.60325e-06
5.21641e-07
1.59782e-06
6.43892e-07
1.14867e-06
7.83181e-07
7.59209e-07
8.56589e-07
2.02642e-07
8.43667e-07
-5.43427e-07
6.1929e-07
-7.75816e-07
2.43574e-07
-7.4613e-07
3.25135e-07
-6.95124e-07
4.34873e-07
-5.77002e-07
6.22575e-07
-2.16463e-07
7.13758e-07
-2.21028e-07
8.12761e-07
-7.96332e-08
5.62653e-07
1.66186e-08
8.49601e-08
3.20473e-07
1.86654e-08
-4.06027e-08
-5.08356e-08
-3.23294e-07
7.40105e-08
-7.16277e-07
-2.60782e-06
5.07011e-07
1.38691e-06
6.3724e-07
1.47302e-06
8.84904e-07
1.35016e-06
1.25304e-06
7.80535e-07
1.42417e-06
5.88079e-07
1.48878e-06
1.38036e-07
1.51608e-06
-5.70735e-07
1.34229e-06
-6.02025e-07
7.62099e-07
-1.65935e-07
1.88398e-07
-1.21422e-07
-2.0791e-07
-1.80694e-07
-2.00835e-07
-2.23537e-07
-1.40444e-07
-2.81419e-07
-1.22378e-07
-9.76993e-08
1.29364e-07
-2.35123e-07
1.47936e-07
3.01901e-07
3.46544e-07
-2.39211e-07
1.71249e-07
-1.47999e-07
-4.33334e-08
-5.01695e-07
-2.65115e-06
6.74035e-07
7.12879e-07
1.08049e-06
1.06657e-06
1.39573e-06
1.03491e-06
1.68959e-06
4.86677e-07
1.84707e-06
4.306e-07
2.03908e-06
-5.39759e-08
1.92523e-06
-4.56886e-07
1.78307e-06
-4.5986e-07
1.89254e-06
-2.75406e-07
1.77604e-06
-4.92748e-09
1.5567e-06
3.86456e-08
1.1084e-06
2.24767e-07
7.64366e-07
6.26152e-08
4.69235e-07
1.97432e-07
1.46156e-07
8.79558e-08
1.17639e-07
3.30418e-07
2.50396e-07
-3.71967e-07
1.57975e-07
-5.55784e-08
1.30812e-07
-4.74532e-07
-2.52034e-06
6.92551e-07
2.03276e-08
9.77655e-07
7.8147e-07
1.23745e-06
7.75116e-07
1.33321e-06
3.90915e-07
1.32556e-06
4.38249e-07
1.03316e-06
2.38423e-07
5.88095e-07
-1.18199e-08
2.28474e-07
-1.00239e-07
8.44288e-08
-1.3136e-07
1.40297e-07
-6.07962e-08
5.88684e-08
1.20075e-07
1.65395e-07
1.18241e-07
-1.95215e-09
2.29963e-07
-6.48576e-08
2.60337e-07
-2.65908e-08
4.96891e-08
-1.66393e-07
4.7022e-07
2.82311e-08
-5.66591e-07
1.47977e-08
-4.21451e-08
-4.13678e-08
-4.18366e-07
-2.56171e-06
2.43124e-07
-2.22797e-07
7.36138e-07
2.88457e-07
9.30618e-07
5.80636e-07
1.04053e-06
2.80999e-07
1.21529e-06
2.63489e-07
1.2618e-06
1.91915e-07
1.18135e-06
6.86317e-08
1.06279e-06
1.83198e-08
9.11228e-07
2.02037e-08
8.1689e-07
3.35424e-08
7.3939e-07
1.97575e-07
7.59648e-07
9.79824e-08
8.02522e-07
1.87089e-07
7.13001e-07
3.49858e-07
8.49687e-07
-8.69972e-08
8.59422e-07
4.60485e-07
6.77449e-07
-3.84618e-07
3.93481e-07
2.41823e-07
2.91851e-07
-3.16736e-07
-2.26986e-06
-5.76797e-07
3.54e-07
-5.48075e-07
2.59734e-07
-3.65506e-07
3.98067e-07
-3.12254e-07
2.27747e-07
-2.49712e-07
2.00947e-07
-2.04255e-07
1.46457e-07
-2.66016e-07
1.30392e-07
-3.34347e-07
8.66514e-08
-4.10925e-07
9.67817e-08
-4.50992e-07
7.36087e-08
-3.4778e-07
9.43631e-08
-3.36597e-07
8.68e-08
-2.1625e-07
6.6741e-08
-4.53677e-08
1.78976e-07
-2.83209e-07
1.50844e-07
7.02546e-08
1.07021e-07
-2.66585e-07
-4.77776e-08
3.45535e-08
-5.93163e-08
7.30066e-07
-1.01225e-06
-1.53979e-06
3.54e-07
6.13735e-07
1.0118e-06
1.23955e-06
1.4405e-06
1.58695e-06
1.71735e-06
1.804e-06
1.90078e-06
1.97439e-06
2.06875e-06
2.15555e-06
2.22229e-06
2.40127e-06
2.55211e-06
2.65913e-06
2.61135e-06
2.55204e-06
1.53979e-06
)
;

boundaryField
{
    movingWall
    {
        type            calculated;
        value           uniform 0;
    }
    fixedWalls
    {
        type            calculated;
        value           uniform 0;
    }
    frontAndBack
    {
        type            empty;
        value           nonuniform 0();
    }
}


// ************************************************************************* //
