/*--------------------------------*- C++ -*----------------------------------*\
| =========                 |                                                 |
| \\      /  F ield         | OpenFOAM: The Open Source CFD Toolbox           |
|  \\    /   O peration     | Version:  5.x                                   |
|   \\  /    A nd           | Web:      www.OpenFOAM.org                      |
|    \\/     M anipulation  |                                                 |
\*---------------------------------------------------------------------------*/
FoamFile
{
    version     2.0;
    format      ascii;
    class       volVectorField;
    location    "3.4";
    object      U;
}
// * * * * * * * * * * * * * * * * * * * * * * * * * * * * * * * * * * * * * //

dimensions      [0 1 -1 0 0 0 0];

internalField   nonuniform List<vector> 
400
(
(-0.000123994 0.000124145 0)
(-0.000381475 0.000130444 0)
(-0.000648734 0.000132528 0)
(-0.000919437 0.000135515 0)
(-0.00119696 0.000139174 0)
(-0.00148216 0.000143197 0)
(-0.00177537 0.000147127 0)
(-0.00207575 0.000150293 0)
(-0.00238085 0.000151701 0)
(-0.00268578 0.000149911 0)
(-0.0029823 0.000142881 0)
(-0.00325743 0.000127806 0)
(-0.00349187 0.00010101 0)
(-0.00365831 5.79647e-05 0)
(-0.00371965 -6.24585e-06 0)
(-0.00362446 -9.76983e-05 0)
(-0.00331192 -0.000218342 0)
(-0.00272646 -0.000363472 0)
(-0.0018328 -0.00051085 0)
(-0.000653209 -0.000620427 0)
(-0.000128935 0.000379864 0)
(-0.000396688 0.000399023 0)
(-0.000674474 0.000405182 0)
(-0.000955572 0.000414029 0)
(-0.00124349 0.000424895 0)
(-0.00153915 0.000436899 0)
(-0.00184305 0.000448709 0)
(-0.0021547 0.00045835 0)
(-0.00247217 0.000462904 0)
(-0.00279137 0.000458128 0)
(-0.00310513 0.000437979 0)
(-0.00340177 0.000394082 0)
(-0.00366336 0.000315303 0)
(-0.00386349 0.000187588 0)
(-0.00396629 -5.34012e-06 0)
(-0.00391721 -0.000279629 0)
(-0.00364476 -0.000648896 0)
(-0.00307042 -0.00110459 0)
(-0.00213622 -0.00158507 0)
(-0.00078826 -0.00198133 0)
(-0.000126928 0.00063976 0)
(-0.00039105 0.000672219 0)
(-0.000665671 0.000682654 0)
(-0.000944084 0.000697693 0)
(-0.00123026 0.000716301 0)
(-0.00152555 0.000737147 0)
(-0.00183119 0.000758222 0)
(-0.00214771 0.000776531 0)
(-0.00247467 0.000787615 0)
(-0.00281004 0.000784908 0)
(-0.0031494 0.000758876 0)
(-0.00348454 0.000695983 0)
(-0.00380148 0.000577587 0)
(-0.00407775 0.000379065 0)
(-0.00427806 6.98147e-05 0)
(-0.00434832 -0.000382062 0)
(-0.00420326 -0.00101451 0)
(-0.00371615 -0.00183551 0)
(-0.00278752 -0.00276404 0)
(-0.00111025 -0.00369517 0)
(-0.000123476 0.000893204 0)
(-0.000381234 0.000939408 0)
(-0.000650172 0.000954699 0)
(-0.000923606 0.000976865 0)
(-0.00120612 0.00100459 0)
(-0.00149965 0.00103632 0)
(-0.00180634 0.00106969 0)
(-0.00212814 0.0011012 0)
(-0.00246667 0.00112554 0)
(-0.00282291 0.00113469 0)
(-0.00319663 0.0011167 0)
(-0.00358529 0.00105403 0)
(-0.00398202 0.000921355 0)
(-0.00437238 0.00068315 0)
(-0.00472779 0.000291518 0)
(-0.00500111 -0.000314192 0)
(-0.00509704 -0.00121299 0)
(-0.00482787 -0.00246717 0)
(-0.00407008 -0.00404439 0)
(-0.00183759 -0.00612709 0)
(-0.000118625 0.00113879 0)
(-0.000367401 0.00119939 0)
(-0.000628212 0.00122024 0)
(-0.000894306 0.00125064 0)
(-0.00117095 0.00128911 0)
(-0.00146062 0.0013341 0)
(-0.00176649 0.00138336 0)
(-0.00209205 0.0014335 0)
(-0.00244137 0.00147922 0)
(-0.00281906 0.0015123 0)
(-0.00323024 0.00151998 0)
(-0.00368007 0.0014828 0)
(-0.00417258 0.00137115 0)
(-0.00470785 0.00114047 0)
(-0.00527578 0.000724463 0)
(-0.00585317 2.49473e-05 0)
(-0.00635649 -0.00109089 0)
(-0.00656921 -0.00280321 0)
(-0.0064788 -0.00528235 0)
(-0.0035499 -0.00992235 0)
(-0.000112162 0.00137355 0)
(-0.000348961 0.00144938 0)
(-0.000598842 0.00147665 0)
(-0.000854811 0.00151649 0)
(-0.00112276 0.00156731 0)
(-0.0014055 0.00162788 0)
(-0.00170706 0.00169653 0)
(-0.00203242 0.0017707 0)
(-0.00238802 0.00184622 0)
(-0.00278231 0.00191622 0)
(-0.00322632 0.00196953 0)
(-0.00373438 0.0019882 0)
(-0.00432476 0.00194338 0)
(-0.00501984 0.00178856 0)
(-0.00584477 0.00144816 0)
(-0.006819 0.000794424 0)
(-0.00793255 -0.000398579 0)
(-0.00907123 -0.00242762 0)
(-0.0106928 -0.00580872 0)
(-0.00741765 -0.0162342 0)
(-0.000103787 0.00159415 0)
(-0.000325168 0.00168634 0)
(-0.00056101 0.00172098 0)
(-0.000803739 0.00177144 0)
(-0.00105967 0.00183597 0)
(-0.00133154 0.00191392 0)
(-0.00162383 0.00200466 0)
(-0.00194255 0.00210724 0)
(-0.00229606 0.00221969 0)
(-0.00269598 0.00233814 0)
(-0.00315852 0.0024555 0)
(-0.00370654 0.00255936 0)
(-0.00437266 0.0026284 0)
(-0.00520396 0.00262601 0)
(-0.0062725 0.00248996 0)
(-0.00770747 0.00211111 0)
(-0.00960229 0.00122011 0)
(-0.0119463 -0.000679453 0)
(-0.0166299 -0.00446423 0)
(-0.0117924 -0.0282666 0)
(-9.30673e-05 0.00179647 0)
(-0.000295075 0.00190699 0)
(-0.000513614 0.00195015 0)
(-0.000739932 0.00201254 0)
(-0.000980423 0.00209154 0)
(-0.00123699 0.00218762 0)
(-0.00151396 0.00230161 0)
(-0.00181764 0.00243486 0)
(-0.00215743 0.0025886 0)
(-0.00254688 0.00276345 0)
(-0.00300559 0.00295891 0)
(-0.00356219 0.00317259 0)
(-0.00425933 0.00339902 0)
(-0.00516072 0.00362717 0)
(-0.00636534 0.00383809 0)
(-0.00810363 0.00402264 0)
(-0.0106476 0.00408674 0)
(-0.0128772 0.00229891 0)
(-0.0201904 -0.00293826 0)
(-0.00549036 -0.0491655 0)
(-7.88834e-05 0.00197625 0)
(-0.000256958 0.0021071 0)
(-0.000455319 0.00216048 0)
(-0.000662489 0.00223566 0)
(-0.000884778 0.00232951 0)
(-0.00112169 0.00244312 0)
(-0.00137687 0.00257951 0)
(-0.00165589 0.00274264 0)
(-0.00196788 0.00293747 0)
(-0.00232617 0.00316954 0)
(-0.00274997 0.0034453 0)
(-0.00326703 0.00377264 0)
(-0.00391865 0.00416269 0)
(-0.00476584 0.00463478 0)
(-0.00587495 0.00522119 0)
(-0.00737456 0.00592916 0)
(-0.0102502 0.0070895 0)
(-0.00899531 0.00409057 0)
(-0.0178226 -0.00529545 0)
(0.00891835 -0.0619382 0)
(-6.08695e-05 0.0021234 0)
(-0.000209447 0.00228889 0)
(-0.000384914 0.00235173 0)
(-0.000571084 0.00244847 0)
(-0.00077311 0.00255251 0)
(-0.000987215 0.00268087 0)
(-0.00121473 0.00283399 0)
(-0.00146008 0.00302184 0)
(-0.00173107 0.00325279 0)
(-0.00203981 0.00353816 0)
(-0.00240369 0.00389292 0)
(-0.00284695 0.00433818 0)
(-0.00340136 0.00490381 0)
(-0.00411027 0.00563571 0)
(-0.00506293 0.00662699 0)
(-0.00575157 0.00751233 0)
(-0.00896363 0.00918318 0)
(-0.0047398 0.00445095 0)
(-0.0133944 -0.0114375 0)
(0.010397 -0.0587811 0)
(-2.51258e-05 0.0022422 0)
(-0.000140395 0.00242328 0)
(-0.000295713 0.00250748 0)
(-0.000461929 0.00259913 0)
(-0.000652986 0.00272582 0)
(-0.000840741 0.00286662 0)
(-0.00103652 0.00303976 0)
(-0.00123777 0.00324802 0)
(-0.00145241 0.00350566 0)
(-0.00168717 0.00382658 0)
(-0.0019516 0.00422921 0)
(-0.0022587 0.00473546 0)
(-0.00262548 0.00538313 0)
(-0.00304092 0.00615812 0)
(-0.00393456 0.00741397 0)
(-0.00364949 0.00809092 0)
(-0.00711263 0.00968856 0)
(-0.002689 0.00401378 0)
(-0.00940903 -0.0175654 0)
(0.00352296 -0.0617136 0)
(-6.05677e-06 0.00226419 0)
(-7.2932e-05 0.00264019 0)
(-0.000208248 0.0026866 0)
(-0.000353391 0.00293949 0)
(-0.000504095 0.00300722 0)
(-0.000672528 0.00316724 0)
(-0.000832375 0.00329856 0)
(-0.000993758 0.00349075 0)
(-0.00115243 0.00374132 0)
(-0.00131646 0.00408093 0)
(-0.00149517 0.00452829 0)
(-0.00169286 0.00511211 0)
(-0.00197954 0.00592526 0)
(-0.00204103 0.00673923 0)
(-0.00300044 0.00851564 0)
(-0.00169122 0.00906046 0)
(-0.00495783 0.0105877 0)
(0.000231493 0.00406216 0)
(-0.00557609 -0.0191606 0)
(0.00527133 -0.0673995 0)
(0.000212048 0.00236432 0)
(0.000148219 0.00254559 0)
(-9.52308e-08 0.00270089 0)
(-0.000140868 0.00268669 0)
(-0.000430765 0.00287108 0)
(-0.00055281 0.00298455 0)
(-0.000717354 0.00319896 0)
(-0.000798893 0.00343023 0)
(-0.000866497 0.00372938 0)
(-0.000905735 0.00408278 0)
(-0.000930112 0.00453102 0)
(-0.000876816 0.00503317 0)
(-0.00103816 0.00580677 0)
(-0.000431894 0.00633985 0)
(-0.00149391 0.00784072 0)
(0.000763746 0.00815118 0)
(-0.00243798 0.00895938 0)
(0.00312495 0.00290368 0)
(-0.00289933 -0.020183 0)
(0.00780146 -0.0636105 0)
(3.87824e-05 0.00174942 0)
(7.87164e-05 0.00294062 0)
(-4.42507e-05 0.00307222 0)
(-0.0001806 0.00375177 0)
(-0.00019316 0.00363332 0)
(-0.000339335 0.00388967 0)
(-0.000379035 0.00382157 0)
(-0.000455898 0.00397468 0)
(-0.000491228 0.00411328 0)
(-0.00050399 0.00440631 0)
(-0.000528945 0.00480396 0)
(-0.000380688 0.00530697 0)
(-0.000624758 0.00620398 0)
(0.000181097 0.00696529 0)
(-0.000900701 0.00862567 0)
(0.00179321 0.00976747 0)
(-0.00112111 0.00973532 0)
(0.00530857 0.00471194 0)
(-0.00142504 -0.0205253 0)
(0.00433708 -0.0611003 0)
(0.00109988 0.00251723 0)
(0.00130686 0.002943 0)
(0.000677411 0.00282737 0)
(0.000351256 0.00244195 0)
(-0.000368429 0.0026717 0)
(-0.000401722 0.00263178 0)
(-0.00066091 0.00290265 0)
(-0.00053008 0.00306749 0)
(-0.000458097 0.00339966 0)
(-0.000246125 0.0036886 0)
(-8.03548e-05 0.0041668 0)
(0.000447461 0.00454776 0)
(0.000431386 0.00520995 0)
(0.00184534 0.00578916 0)
(0.00109168 0.00622838 0)
(0.00423905 0.00713694 0)
(0.00186423 0.00560299 0)
(0.00680512 0.001463 0)
(-0.00114264 -0.0207864 0)
(0.00499009 -0.0624092 0)
(0.000855433 -0.00115178 0)
(0.000539825 0.00277828 0)
(0.000485498 0.00390653 0)
(0.000315029 0.00534985 0)
(0.000409814 0.00479313 0)
(0.000140471 0.00497604 0)
(0.00022144 0.00439044 0)
(0.000195081 0.00448355 0)
(0.000252677 0.00430166 0)
(0.000393823 0.00454731 0)
(0.000455634 0.00464392 0)
(0.000850337 0.00509639 0)
(0.00085822 0.00554602 0)
(0.00175626 0.00631453 0)
(0.00122675 0.00725205 0)
(0.00379895 0.00924908 0)
(0.000971204 0.00836878 0)
(0.00975986 0.00750481 0)
(-4.21569e-05 -0.0166539 0)
(0.00926975 -0.0583048 0)
(0.00302771 0.00117259 0)
(0.00305956 0.00488886 0)
(-0.0017952 0.00328574 0)
(-0.00207286 0.00205768 0)
(-0.00308314 0.00221848 0)
(-0.00236886 0.00197233 0)
(-0.00222958 0.00216308 0)
(-0.00159901 0.00226811 0)
(-0.00114165 0.00258223 0)
(-0.000680496 0.00277239 0)
(-0.000135833 0.00320305 0)
(0.000552406 0.00349771 0)
(0.000894295 0.00394034 0)
(0.00232423 0.00466832 0)
(0.00249102 0.00417302 0)
(0.00525169 0.00546452 0)
(0.00375917 -7.4999e-05 0)
(0.011151 -0.000569282 0)
(-0.00161126 -0.0186034 0)
(0.0095582 -0.054405 0)
(-0.00100379 -0.00824208 0)
(0.00700596 0.00592711 0)
(0.00909879 0.00780201 0)
(0.00754305 0.00760522 0)
(0.00838464 0.00528934 0)
(0.00752184 0.0053803 0)
(0.00670284 0.00412116 0)
(0.0063655 0.00449105 0)
(0.0054111 0.00390276 0)
(0.00555384 0.00445962 0)
(0.00447097 0.00410166 0)
(0.00540615 0.00455011 0)
(0.00449774 0.00469434 0)
(0.00593237 0.00496116 0)
(0.0053489 0.00531305 0)
(0.0062366 0.00880955 0)
(0.00475588 0.00519639 0)
(0.00781049 0.0115442 0)
(0.00196999 -0.00928773 0)
(0.0113157 -0.0512387 0)
(-0.0205321 -0.0038747 0)
(-0.0107377 -0.00134321 0)
(-0.0225826 0.00174318 0)
(-0.0116441 0.00243401 0)
(-0.0198731 0.00152217 0)
(-0.0121748 0.00293825 0)
(-0.0169012 0.00215647 0)
(-0.0126959 0.00277433 0)
(-0.0135108 0.00246169 0)
(-0.0123746 0.00292637 0)
(-0.0103968 0.00239756 0)
(-0.0105145 0.00277934 0)
(-0.00759161 0.0026031 0)
(-0.00735953 0.00271033 0)
(-0.00356818 0.0030321 0)
(-0.00378454 0.0046207 0)
(0.0056079 -0.00434703 0)
(0.00277974 0.000517392 0)
(0.0153474 -0.026719 0)
(0.0153691 -0.0493487 0)
(0.00267771 0.0182833 0)
(0.0142005 0.0110729 0)
(0.0111445 0.00791786 0)
(0.0220666 0.00669997 0)
(0.0217709 0.00506832 0)
(0.0274594 0.00467493 0)
(0.0283865 0.00446911 0)
(0.0347325 0.00328389 0)
(0.0338677 0.00305052 0)
(0.0381791 0.00336655 0)
(0.0423273 0.0025014 0)
(0.041012 0.00230046 0)
(0.0470404 0.00261326 0)
(0.047292 0.00211833 0)
(0.0499383 0.00183348 0)
(0.0511909 0.00168297 0)
(0.0535025 0.00115876 0)
(0.0525444 -0.000394407 0)
(0.0452515 -0.00461789 0)
(0.0302846 -0.00823785 0)
)
;

boundaryField
{
    movingWall
    {
        type            fixedValue;
        value           uniform (1 0 0);
    }
    fixedWalls
    {
        type            noSlip;
    }
    frontAndBack
    {
        type            empty;
    }
}


// ************************************************************************* //
