/*--------------------------------*- C++ -*----------------------------------*\
| =========                 |                                                 |
| \\      /  F ield         | OpenFOAM: The Open Source CFD Toolbox           |
|  \\    /   O peration     | Version:  5.x                                   |
|   \\  /    A nd           | Web:      www.OpenFOAM.org                      |
|    \\/     M anipulation  |                                                 |
\*---------------------------------------------------------------------------*/
FoamFile
{
    version     2.0;
    format      ascii;
    class       volVectorField;
    location    "0.6";
    object      U;
}
// * * * * * * * * * * * * * * * * * * * * * * * * * * * * * * * * * * * * * //

dimensions      [0 1 -1 0 0 0 0];

internalField   nonuniform List<vector> 
400
(
(-2.42547e-05 2.4168e-05 0)
(-7.24106e-05 2.3783e-05 0)
(-0.000118982 2.25789e-05 0)
(-0.000162554 2.0819e-05 0)
(-0.000202083 1.85585e-05 0)
(-0.00023663 1.58622e-05 0)
(-0.000265394 1.28014e-05 0)
(-0.00028772 9.45015e-06 0)
(-0.000303103 5.88331e-06 0)
(-0.000311188 2.17576e-06 0)
(-0.000311769 -1.59729e-06 0)
(-0.000304791 -5.35882e-06 0)
(-0.000290356 -9.02926e-06 0)
(-0.000268729 -1.25251e-05 0)
(-0.000240344 -1.57588e-05 0)
(-0.000205815 -1.86404e-05 0)
(-0.000165936 -2.10808e-05 0)
(-0.000121675 -2.29963e-05 0)
(-7.41402e-05 -2.43148e-05 0)
(-2.48497e-05 -2.47562e-05 0)
(-2.50902e-05 7.33804e-05 0)
(-7.48988e-05 7.22054e-05 0)
(-0.000123053 6.854e-05 0)
(-0.000168084 6.31862e-05 0)
(-0.000208915 5.63142e-05 0)
(-0.000244581 4.81239e-05 0)
(-0.000274264 3.88333e-05 0)
(-0.000297299 2.86674e-05 0)
(-0.000313177 1.78526e-05 0)
(-0.000321539 6.61391e-06 0)
(-0.000322175 -4.82321e-06 0)
(-0.000315027 -1.62285e-05 0)
(-0.00030019 -2.73632e-05 0)
(-0.000277924 -3.79758e-05 0)
(-0.000248662 -4.78017e-05 0)
(-0.000213022 -5.65667e-05 0)
(-0.00017181 -6.39971e-05 0)
(-0.000126022 -6.98353e-05 0)
(-7.68077e-05 -7.38569e-05 0)
(-2.5747e-05 -7.5208e-05 0)
(-2.6337e-05 0.000124686 0)
(-7.86096e-05 0.00012267 0)
(-0.000129114 0.00011641 0)
(-0.000176295 0.000107279 0)
(-0.000219028 9.55741e-05 0)
(-0.000256313 8.1646e-05 0)
(-0.000287317 6.58698e-05 0)
(-0.000311371 4.8629e-05 0)
(-0.000327965 3.03044e-05 0)
(-0.000336744 1.12707e-05 0)
(-0.000337492 -8.09927e-06 0)
(-0.000330143 -2.74257e-05 0)
(-0.000314779 -4.63132e-05 0)
(-0.00029164 -6.43419e-05 0)
(-0.000261144 -8.10647e-05 0)
(-0.0002239 -9.6013e-05 0)
(-0.000180726 -0.000108712 0)
(-0.000132653 -0.00011871 0)
(-8.08885e-05 -0.000125608 0)
(-2.71218e-05 -0.000127941 0)
(-2.82619e-05 0.000179126 0)
(-8.43345e-05 0.000176186 0)
(-0.000138452 0.00016712 0)
(-0.000188926 0.00015392 0)
(-0.000234555 0.000137041 0)
(-0.000274293 0.000117005 0)
(-0.000307289 9.43639e-05 0)
(-0.000332873 6.96704e-05 0)
(-0.000350545 4.34628e-05 0)
(-0.000359952 1.62621e-05 0)
(-0.000360881 -1.14195e-05 0)
(-0.000353249 -3.90617e-05 0)
(-0.000337114 -6.61201e-05 0)
(-0.000312682 -9.20086e-05 0)
(-0.000280339 -0.000116092 0)
(-0.000240674 -0.000137691 0)
(-0.00019451 -0.000156102 0)
(-0.000142926 -0.000170644 0)
(-8.72223e-05 -0.000180705 0)
(-2.92575e-05 -0.000184139 0)
(-3.09354e-05 0.00023814 0)
(-9.2278e-05 0.000234145 0)
(-0.000151384 0.000221944 0)
(-0.000206374 0.000204233 0)
(-0.000255942 0.000181666 0)
(-0.00029899 0.000154975 0)
(-0.000334651 0.000124919 0)
(-0.000362272 9.22337e-05 0)
(-0.000381374 5.76194e-05 0)
(-0.000391626 2.17355e-05 0)
(-0.000392816 -1.47813e-05 0)
(-0.000384843 -5.12881e-05 0)
(-0.000367726 -8.7106e-05 0)
(-0.000341612 -0.00012149 0)
(-0.000306826 -0.000153611 0)
(-0.00026391 -0.000182556 0)
(-0.00021368 -0.000207353 0)
(-0.000157262 -0.000227032 0)
(-9.60844e-05 -0.000240703 0)
(-3.22499e-05 -0.000245433 0)
(-3.4462e-05 0.000303316 0)
(-0.00010274 0.000298066 0)
(-0.000168369 0.000282252 0)
(-0.000229205 0.000259396 0)
(-0.000283813 0.000230418 0)
(-0.00033104 0.000196323 0)
(-0.000370031 0.000158115 0)
(-0.000400173 0.000116739 0)
(-0.000421043 7.3054e-05 0)
(-0.000432353 2.78439e-05 0)
(-0.000433904 -1.81563e-05 0)
(-0.000425574 -6.42131e-05 0)
(-0.000407316 -0.00010954 0)
(-0.000379188 -0.000153251 0)
(-0.000341405 -0.000194321 0)
(-0.000294416 -0.000231574 0)
(-0.000238987 -0.000263713 0)
(-0.000176284 -0.00028939 0)
(-0.000107889 -0.000307334 0)
(-3.62444e-05 -0.00031366 0)
(-3.89946e-05 0.000376491 0)
(-0.000116157 0.000369684 0)
(-0.00019006 0.000349568 0)
(-0.000258208 0.000320675 0)
(-0.000319015 0.000284298 0)
(-0.000371292 0.000241805 0)
(-0.000414235 0.000194505 0)
(-0.000447333 0.000143572 0)
(-0.000470269 9.00269e-05 0)
(-0.000482836 3.47465e-05 0)
(-0.000484873 -2.14802e-05 0)
(-0.000476227 -7.78818e-05 0)
(-0.000456764 -0.000133613 0)
(-0.000426393 -0.000187681 0)
(-0.000385149 -0.000238872 0)
(-0.000333302 -0.000285721 0)
(-0.000271496 -0.000326525 0)
(-0.000200896 -0.000359433 0)
(-0.000123249 -0.000382624 0)
(-4.14582e-05 -0.000391009 0)
(-4.47577e-05 0.000459866 0)
(-0.000133158 0.000451035 0)
(-0.000217385 0.000425622 0)
(-0.000294474 0.000389438 0)
(-0.000362682 0.000344323 0)
(-0.000420834 0.000292133 0)
(-0.000468264 0.000234563 0)
(-0.000504651 0.00017305 0)
(-0.000529869 0.000108755 0)
(-0.00054386 4.26018e-05 0)
(-0.000546533 -2.46373e-05 0)
(-0.000537707 -9.22402e-05 0)
(-0.000517115 -0.000159382 0)
(-0.000484447 -0.000225029 0)
(-0.000439446 -0.000287812 0)
(-0.000382069 -0.000345948 0)
(-0.000312699 -0.000397233 0)
(-0.0002324 -0.000439133 0)
(-0.000143072 -0.000469014 0)
(-4.822e-05 -0.000480191 0)
(-5.20887e-05 0.000556175 0)
(-0.000154671 0.000544578 0)
(-0.000251664 0.000512402 0)
(-0.000339507 0.000467153 0)
(-0.00041632 0.000411476 0)
(-0.000481052 0.000347905 0)
(-0.000533319 0.000278623 0)
(-0.000573142 0.000205355 0)
(-0.000600718 0.000129368 0)
(-0.000616229 5.15534e-05 0)
(-0.000619715 -2.74442e-05 0)
(-0.000610973 -0.000107082 0)
(-0.000589553 -0.000186691 0)
(-0.000554822 -0.000265305 0)
(-0.000506068 -0.000341472 0)
(-0.000442725 -0.000413094 0)
(-0.000364683 -0.000477355 0)
(-0.000272698 -0.000530783 0)
(-0.000168734 -0.000569533 0)
(-5.70411e-05 -0.000584706 0)
(-6.15135e-05 0.000668954 0)
(-0.000182096 0.000653357 0)
(-0.000294816 0.000612219 0)
(-0.0003954 0.000555355 0)
(-0.000481931 0.000486621 0)
(-0.000553688 0.000409489 0)
(-0.000610815 0.000326752 0)
(-0.000653907 0.000240435 0)
(-0.000683672 0.000151842 0)
(-0.000700673 6.17022e-05 0)
(-0.000705168 -2.96321e-05 0)
(-0.000696954 -0.000121981 0)
(-0.000675339 -0.000215043 0)
(-0.000639229 -0.000308113 0)
(-0.000587236 -0.000399794 0)
(-0.000517952 -0.000487728 0)
(-0.00043039 -0.000568391 0)
(-0.000324606 -0.000637053 0)
(-0.000202384 -0.00068803 0)
(-6.87549e-05 -0.000709292 0)
(-7.38948e-05 0.000802998 0)
(-0.000217621 0.000781233 0)
(-0.000349673 0.00072776 0)
(-0.000465105 0.000655561 0)
(-0.000562187 0.000570333 0)
(-0.000640922 0.000476823 0)
(-0.000702374 0.000378559 0)
(-0.000748054 0.000277844 0)
(-0.000779451 0.000175892 0)
(-0.000797704 7.30604e-05 0)
(-0.0008034 -3.08351e-05 0)
(-0.000796384 -0.000136226 0)
(-0.000775685 -0.000243459 0)
(-0.000739574 -0.000352406 0)
(-0.000685684 -0.000462023 0)
(-0.000611322 -0.00056985 0)
(-0.000514009 -0.000671622 0)
(-0.000392374 -0.000760996 0)
(-0.000247508 -0.000829486 0)
(-8.48015e-05 -0.000860693 0)
(-9.07355e-05 0.000965122 0)
(-0.000264795 0.000933175 0)
(-0.000420493 0.000862112 0)
(-0.000552827 0.000769075 0)
(-0.00066067 0.000662603 0)
(-0.000745464 0.000549087 0)
(-0.000809796 0.000432926 0)
(-0.000856576 0.00031657 0)
(-0.000888457 0.000200863 0)
(-0.000907401 8.54937e-05 0)
(-0.000914456 -3.05798e-05 0)
(-0.000909579 -0.000148729 0)
(-0.00089152 -0.000270317 0)
(-0.000857794 -0.00039622 0)
(-0.000804681 -0.00052625 0)
(-0.000727552 -0.000658355 0)
(-0.000621538 -0.000787661 0)
(-0.000482521 -0.000905926 0)
(-0.000310008 -0.00100036 0)
(-0.000107842 -0.00104908 0)
(-0.000114805 0.00116586 0)
(-0.000329599 0.00111564 0)
(-0.00051377 0.00101868 0)
(-0.000664615 0.000896577 0)
(-0.000782178 0.000762278 0)
(-0.000870603 0.000624265 0)
(-0.000934894 0.000487728 0)
(-0.000980119 0.000354825 0)
(-0.00101053 0.000225589 0)
(-0.00102915 9.86439e-05 0)
(-0.00103762 -2.82864e-05 0)
(-0.00103612 -0.000157925 0)
(-0.00102318 -0.000293109 0)
(-0.000995509 -0.000436295 0)
(-0.00094782 -0.000588876 0)
(-0.000872734 -0.000750132 0)
(-0.000761582 -0.000915524 0)
(-0.00060515 -0.00107494 0)
(-0.000400318 -0.00120883 0)
(-0.00014313 -0.00129076 0)
(-0.00015178 0.00141944 0)
(-0.000422823 0.00133637 0)
(-0.000639532 0.00120073 0)
(-0.000809237 0.00103721 0)
(-0.000932987 0.000866283 0)
(-0.00102002 0.000698587 0)
(-0.00107924 0.000539353 0)
(-0.00111872 0.000389688 0)
(-0.00114464 0.000248167 0)
(-0.00116128 0.000111812 0)
(-0.00117103 -2.33109e-05 0)
(-0.0011744 -0.000161706 0)
(-0.00116989 -0.000308193 0)
(-0.00115356 -0.00046753 0)
(-0.00111852 -0.000643751 0)
(-0.0010542 -0.000838907 0)
(-0.000946338 -0.00105073 0)
(-0.000775962 -0.00126958 0)
(-0.000537659 -0.00146444 0)
(-0.000201645 -0.00161326 0)
(-0.00021089 0.00176975 0)
(-0.000561561 0.0016072 0)
(-0.000812844 0.00141102 0)
(-0.000999093 0.00118712 0)
(-0.00112082 0.000968497 0)
(-0.00119754 0.000765515 0)
(-0.0012438 0.000582014 0)
(-0.00127131 0.00041671 0)
(-0.00128841 0.000265712 0)
(-0.00130063 0.000123795 0)
(-0.00131114 -1.50688e-05 0)
(-0.00132101 -0.00015747 0)
(-0.00132901 -0.000310688 0)
(-0.00133107 -0.000482518 0)
(-0.0013192 -0.000681 0)
(-0.00127971 -0.000913279 0)
(-0.00119221 -0.00118254 0)
(-0.00101915 -0.00148582 0)
(-0.000758498 -0.00177449 0)
(-0.000307183 -0.00206922 0)
(-0.000330731 0.00213244 0)
(-0.000798661 0.00191924 0)
(-0.00105924 0.00164335 0)
(-0.00125185 0.00133634 0)
(-0.00135461 0.00105748 0)
(-0.00140652 0.000814449 0)
(-0.00142805 0.000607159 0)
(-0.00143502 0.000429687 0)
(-0.00143756 0.000274347 0)
(-0.00144206 0.000132862 0)
(-0.00145229 -3.06585e-06 0)
(-0.00147003 -0.000142388 0)
(-0.00149495 -0.000294594 0)
(-0.00152389 -0.000471145 0)
(-0.00154929 -0.000685534 0)
(-0.00155575 -0.000952922 0)
(-0.00151871 -0.00128742 0)
(-0.00136881 -0.00170882 0)
(-0.00113772 -0.00212356 0)
(-0.000517718 -0.00272148 0)
(-0.000441282 0.00319619 0)
(-0.00107518 0.00234581 0)
(-0.00139554 0.00192362 0)
(-0.00158549 0.00147076 0)
(-0.00164276 0.00111345 0)
(-0.00164788 0.000828129 0)
(-0.00162856 0.000602084 0)
(-0.00160412 0.000420228 0)
(-0.00158524 0.000268891 0)
(-0.00157804 0.00013618 0)
(-0.00158639 1.14767e-05 0)
(-0.00161254 -0.000114724 0)
(-0.00165776 -0.000254591 0)
(-0.00172202 -0.000423127 0)
(-0.00180096 -0.000641138 0)
(-0.00188152 -0.000940114 0)
(-0.00194701 -0.00135841 0)
(-0.00185741 -0.00198084 0)
(-0.00177972 -0.00262133 0)
(-0.000935094 -0.0039523 0)
(-0.00105887 0.00311431 0)
(-0.00207407 0.00274508 0)
(-0.00191171 0.00209998 0)
(-0.00205814 0.00154711 0)
(-0.00199585 0.00111463 0)
(-0.00191763 0.000794399 0)
(-0.00183598 0.000560584 0)
(-0.00176827 0.000385536 0)
(-0.0017216 0.000248726 0)
(-0.00169936 0.00013501 0)
(-0.00170295 3.2391e-05 0)
(-0.00173569 -6.98029e-05 0)
(-0.00180272 -0.000182145 0)
(-0.00190948 -0.000318705 0)
(-0.00206486 -0.000498061 0)
(-0.00227098 -0.000754179 0)
(-0.00255317 -0.0011117 0)
(-0.00262642 -0.00181473 0)
(-0.0030352 -0.00231668 0)
(-0.00167432 -0.00507425 0)
(-0.0033288 0.00761209 0)
(-0.00320395 0.00268244 0)
(-0.00313763 0.00220683 0)
(-0.00287328 0.00138896 0)
(-0.00254319 0.000904159 0)
(-0.00226836 0.000614442 0)
(-0.0020534 0.000421124 0)
(-0.00189802 0.000285543 0)
(-0.00179325 0.000185684 0)
(-0.0017324 0.000106849 0)
(-0.00171193 3.86817e-05 0)
(-0.00173059 -2.84075e-05 0)
(-0.00178965 -0.000103378 0)
(-0.00189178 -0.00020248 0)
(-0.00204324 -0.000352697 0)
(-0.00220811 -0.000640385 0)
(-0.00255035 -0.00111872 0)
(-0.00217261 -0.00235535 0)
(-0.0033198 -0.00391152 0)
(-0.000426846 -0.0104599 0)
(0.00938123 0.0077231 0)
(0.00841239 0.00266564 0)
(0.0126107 0.00160848 0)
(0.0137499 0.000934824 0)
(0.0145898 0.000532739 0)
(0.0151969 0.0003263 0)
(0.0155918 0.000210872 0)
(0.0158557 0.000139745 0)
(0.0160325 9.27319e-05 0)
(0.0161447 5.92003e-05 0)
(0.0162047 3.29843e-05 0)
(0.0162178 1.03352e-05 0)
(0.016181 -1.28364e-05 0)
(0.0160935 -4.41388e-05 0)
(0.0158704 -8.94395e-05 0)
(0.015682 -0.000221896 0)
(0.0145299 -0.000380721 0)
(0.0149998 -0.00114915 0)
(0.00895478 -0.00170872 0)
(0.0114829 -0.00665024 0)
)
;

boundaryField
{
    movingWall
    {
        type            fixedValue;
        value           uniform (1 0 0);
    }
    fixedWalls
    {
        type            noSlip;
    }
    frontAndBack
    {
        type            empty;
    }
}


// ************************************************************************* //
