/*--------------------------------*- C++ -*----------------------------------*\
| =========                 |                                                 |
| \\      /  F ield         | OpenFOAM: The Open Source CFD Toolbox           |
|  \\    /   O peration     | Version:  5.x                                   |
|   \\  /    A nd           | Web:      www.OpenFOAM.org                      |
|    \\/     M anipulation  |                                                 |
\*---------------------------------------------------------------------------*/
FoamFile
{
    version     2.0;
    format      ascii;
    class       volVectorField;
    location    "11.8";
    object      U;
}
// * * * * * * * * * * * * * * * * * * * * * * * * * * * * * * * * * * * * * //

dimensions      [0 1 -1 0 0 0 0];

internalField   nonuniform List<vector> 
400
(
(-0.00934544 0.00329168 0)
(-0.0324529 0.00777514 0)
(-0.0382716 0.000231349 0)
(-0.0441269 0.00226943 0)
(-0.0451594 -0.00160934 0)
(-0.0474601 0.000180406 0)
(-0.0465046 -0.00109649 0)
(-0.0489047 -0.00091709 0)
(-0.0475741 -0.0019044 0)
(-0.0467392 -0.00107207 0)
(-0.0484079 -0.000265064 0)
(-0.0472627 -0.00102936 0)
(-0.0481145 8.40071e-05 0)
(-0.0486694 -0.000389244 0)
(-0.0498217 -0.000395381 0)
(-0.0481322 -0.00220067 0)
(-0.0465162 -0.0025949 0)
(-0.0401118 -0.00461495 0)
(-0.0427122 -0.00861282 0)
(-0.000114673 -0.0150215 0)
(-0.0109748 0.0309001 0)
(-0.0205533 0.0221604 0)
(-0.0161594 0.00910492 0)
(-0.0246115 0.00569906 0)
(-0.0173165 0.00275833 0)
(-0.0240849 0.00212214 0)
(-0.018859 0.0013156 0)
(-0.0218958 0.00133523 0)
(-0.0203451 0.000809185 0)
(-0.019802 0.000925451 0)
(-0.0203877 0.00131396 0)
(-0.0183503 0.000797464 0)
(-0.0200674 0.00186101 0)
(-0.0165149 -0.000268997 0)
(-0.0215848 0.000502107 0)
(-0.0170262 -0.00187245 0)
(-0.0257611 -0.00171962 0)
(-0.0157702 -0.0101779 0)
(-0.0307568 -0.0222263 0)
(-0.00222172 -0.0395853 0)
(-0.00536533 0.0398558 0)
(-0.00927154 0.0211069 0)
(-0.00549974 0.00681114 0)
(-0.0091688 0.00385143 0)
(-0.00516154 -0.000320263 0)
(-0.00780728 0.000106976 0)
(-0.00546161 -0.00142765 0)
(-0.0060601 -0.00120477 0)
(-0.00587844 -0.00180689 0)
(-0.00435636 -0.00243585 0)
(-0.00643948 -0.00126147 0)
(-0.00213927 -0.00222183 0)
(-0.00739531 -0.000765791 0)
(-0.000381672 -0.000828326 0)
(-0.00951428 0.00170182 0)
(-0.000338693 0.000653657 0)
(-0.0119886 0.000655615 0)
(0.00294733 -0.00214861 0)
(-0.0085961 -0.00713885 0)
(0.00113358 -0.045451 0)
(-0.00139807 0.0387668 0)
(-0.00321735 0.0236942 0)
(-0.00239508 0.00728153 0)
(-0.00270717 0.00427333 0)
(-0.0021354 0.00169494 0)
(-0.00417533 0.00163457 0)
(-0.00344294 0.00020521 0)
(-0.00432114 0.000798788 0)
(-0.00449735 0.00013021 0)
(-0.00390201 0.00030896 0)
(-0.00542406 0.000343765 0)
(-0.00323124 0.000867377 0)
(-0.00623751 0.00126515 0)
(-0.00243579 0.00104845 0)
(-0.0062873 0.0018093 0)
(-0.000700834 -0.00086894 0)
(-0.00292562 -0.00404642 0)
(-0.000579765 -0.0161531 0)
(-0.0104437 -0.0231075 0)
(0.0028229 -0.0521278 0)
(-0.00297089 0.0458992 0)
(-0.00131063 0.0245011 0)
(8.98655e-05 0.0065413 0)
(-0.0011686 0.00343902 0)
(-0.00245181 0.00195907 0)
(-0.00410345 0.000915815 0)
(-0.0045538 -0.000621238 0)
(-0.00463592 -0.00067496 0)
(-0.00503551 -0.00168817 0)
(-0.00310606 -0.00193923 0)
(-0.00518182 -0.00163593 0)
(-0.000795173 -0.00209635 0)
(-0.00442543 -0.000804742 0)
(0.00189455 -0.00203558 0)
(-0.00245076 0.000568723 0)
(0.00467795 -0.00366426 0)
(0.000112807 0.000593536 0)
(0.00464028 0.00392687 0)
(-0.00180888 -0.00421795 0)
(0.00346761 -0.0498584 0)
(-6.232e-05 0.0441246 0)
(0.000152635 0.0203301 0)
(-0.00182698 0.00592399 0)
(-0.00271949 0.00586352 0)
(-0.00375756 0.0042312 0)
(-0.00468086 0.00318811 0)
(-0.00548891 0.00109077 0)
(-0.00480696 0.000671965 0)
(-0.00569807 -0.000585456 0)
(-0.00336324 -0.000523917 0)
(-0.00549633 -0.000793803 0)
(-0.00186041 -0.00071716 0)
(-0.00503265 -0.000481787 0)
(-0.000489928 -0.000981975 0)
(-0.00437784 -0.000423267 0)
(0.000908308 -0.00308081 0)
(-0.00591507 -0.0030451 0)
(0.00357522 -0.0137764 0)
(-0.00626 -0.0243769 0)
(0.00361561 -0.0549045 0)
(-0.00303778 0.0430628 0)
(0.00245985 0.0247624 0)
(1.2268e-05 0.0109375 0)
(-0.00216198 0.00552423 0)
(-0.00487194 0.00511859 0)
(-0.00602633 0.00269143 0)
(-0.00681354 0.000121526 0)
(-0.00587822 -0.000886222 0)
(-0.00639113 -0.00265702 0)
(-0.00321039 -0.00261488 0)
(-0.00555217 -0.00289195 0)
(-0.000147243 -0.00335607 0)
(-0.00453812 -0.00185045 0)
(0.00281328 -0.0038848 0)
(-0.00263413 -0.000341977 0)
(0.00494469 -0.00392888 0)
(-0.000579305 -0.00172284 0)
(0.00493277 0.00196349 0)
(-0.00255774 -0.00309805 0)
(0.00377911 -0.0507168 0)
(6.0853e-05 0.0471016 0)
(0.00295893 0.0206011 0)
(-0.000382456 0.0100817 0)
(-0.00425977 0.0107713 0)
(-0.00806588 0.00737716 0)
(-0.00866114 0.00498901 0)
(-0.00899038 0.000942225 0)
(-0.00714637 -0.000210178 0)
(-0.0075801 -0.0026022 0)
(-0.00406073 -0.00199773 0)
(-0.0061897 -0.0026692 0)
(-0.00168352 -0.00215155 0)
(-0.00541219 -0.00238817 0)
(0.000518262 -0.00258852 0)
(-0.00558686 -0.00191706 0)
(0.00302448 -0.00445254 0)
(-0.0060735 -0.00201868 0)
(0.00394056 -0.010671 0)
(-0.00395789 -0.0209672 0)
(0.00448708 -0.0546126 0)
(-0.0035775 0.0382716 0)
(0.000639806 0.021903 0)
(-0.00641287 0.0172328 0)
(-0.00631158 0.0130823 0)
(-0.0113605 0.0102478 0)
(-0.013049 0.00449951 0)
(-0.0116131 -0.00139239 0)
(-0.00862679 -0.00211856 0)
(-0.00688091 -0.00565053 0)
(-0.0038021 -0.00479218 0)
(-0.0056018 -0.00522147 0)
(-0.000225923 -0.00521997 0)
(-0.00497189 -0.00406235 0)
(0.00248979 -0.00502269 0)
(-0.00521004 -0.00267854 0)
(0.00649368 -0.005315 0)
(-0.00200872 -0.00248164 0)
(0.0062802 -0.00220138 0)
(-0.00400449 -0.00607536 0)
(0.00356691 -0.0516479 0)
(-0.00107667 0.0477657 0)
(0.000359359 0.0254531 0)
(-0.00551937 0.0166495 0)
(-0.00876917 0.0171184 0)
(-0.0177164 0.0134249 0)
(-0.0181596 0.00514448 0)
(-0.0174056 -0.0031556 0)
(-0.0129761 -0.00467919 0)
(-0.00624358 -0.00739389 0)
(-0.00505064 -0.00305039 0)
(-0.00506051 -0.00506619 0)
(-0.00171669 -0.00275595 0)
(-0.00485904 -0.00378643 0)
(0.000355385 -0.00222345 0)
(-0.0067912 -0.00483466 0)
(0.00426209 -0.00714557 0)
(-0.00582119 -0.000405321 0)
(0.00433542 -0.00779083 0)
(-0.00393689 -0.0149519 0)
(0.00551569 -0.0530948 0)
(-0.00208837 0.0429054 0)
(0.000819009 0.0271969 0)
(-0.00808241 0.0255802 0)
(-0.0152972 0.0234663 0)
(-0.0177872 0.0189352 0)
(-0.019357 0.00573608 0)
(-0.0183347 -0.00744422 0)
(-0.0147676 -0.0145761 0)
(-0.00633092 -0.0148713 0)
(-0.00411946 -0.00684945 0)
(-0.00196872 -0.00886384 0)
(0.000123296 -0.00685034 0)
(-0.00255055 -0.00640578 0)
(-0.00106876 -0.00429826 0)
(-0.00682727 -0.00649728 0)
(0.00349823 -0.00795863 0)
(-0.00866516 -0.00264216 0)
(0.00955359 -0.00633653 0)
(-0.00475589 -0.00965106 0)
(0.00424911 -0.0513118 0)
(0.00143854 0.0455657 0)
(-0.00234512 0.0303444 0)
(-0.00571259 0.0285164 0)
(-0.00971436 0.0268106 0)
(-0.0113505 0.0154081 0)
(-0.014199 0.00625232 0)
(-0.012629 -0.00859365 0)
(-0.0100948 -0.018587 0)
(-0.00579551 -0.0177848 0)
(-0.00255244 -0.00634036 0)
(0.00193919 -0.00762102 0)
(-0.00130673 -0.00155655 0)
(-0.000756381 -0.00112353 0)
(-0.00288312 0.00123589 0)
(-0.00584402 -0.0079521 0)
(0.000251719 -0.00494932 0)
(-0.00777838 -0.00442932 0)
(0.00235811 -0.0105916 0)
(-0.00571266 -0.00580637 0)
(0.0070294 -0.0535408 0)
(0.00204113 0.0440615 0)
(0.00469704 0.0348777 0)
(-0.00116886 0.033772 0)
(7.815e-05 0.0287509 0)
(0.00177708 0.0237254 0)
(0.000851512 0.0116262 0)
(0.00306087 -0.00860155 0)
(0.0031125 -0.0217959 0)
(-0.000672407 -0.0257895 0)
(0.00409586 -0.0153757 0)
(0.00914203 -0.0110089 0)
(0.00967232 -0.00462351 0)
(0.0067661 -0.00587085 0)
(0.00812579 0.000383628 0)
(0.00797584 -0.00905749 0)
(0.00203213 -0.00920749 0)
(-0.000268431 -0.0055487 0)
(-0.00142912 -0.0115913 0)
(-0.0067903 -0.0173407 0)
(0.00437178 -0.0523612 0)
(-0.0016162 0.0412891 0)
(0.00767661 0.0343299 0)
(0.0063393 0.0342449 0)
(0.0105514 0.0270647 0)
(0.0101388 0.0172714 0)
(0.0154593 0.00409762 0)
(0.0135349 -0.0099749 0)
(0.0190217 -0.0128265 0)
(0.0101685 -0.0186953 0)
(0.00378659 -0.0171831 0)
(0.00503384 -0.0141828 0)
(0.00449802 0.00155972 0)
(0.0139739 -0.00053816 0)
(0.00839036 0.000206645 0)
(0.0191327 0.00111172 0)
(0.00662075 0.00338457 0)
(-0.00038525 0.00195875 0)
(0.00389831 -0.00257364 0)
(-0.00392488 -0.00636461 0)
(0.00737704 -0.0529232 0)
(0.00358351 0.037395 0)
(0.0113169 0.0284825 0)
(0.00812935 0.0302412 0)
(0.0175407 0.0229711 0)
(0.022224 0.0147422 0)
(0.0251876 0.00793038 0)
(0.0278223 -0.00733201 0)
(0.0294739 -0.0220624 0)
(0.0284294 -0.00809526 0)
(0.0161438 -0.00553952 0)
(0.00493404 -0.00784606 0)
(-0.00597692 -0.0127103 0)
(0.00104081 -0.0105906 0)
(-0.00760133 -0.00723047 0)
(0.00250469 -0.00532238 0)
(0.00248325 0.00610254 0)
(0.00188192 -0.00346357 0)
(0.013563 -0.0108192 0)
(-0.0054794 -0.0259886 0)
(0.00461703 -0.0524098 0)
(0.00507145 0.0277764 0)
(0.0184864 0.0296584 0)
(0.0181767 0.0298392 0)
(0.0266563 0.0164735 0)
(0.0304446 0.00942246 0)
(0.0369743 0.00206721 0)
(0.0355663 -0.0118629 0)
(0.0401261 -0.0142222 0)
(0.0260444 -0.0108416 0)
(0.0382588 0.00068926 0)
(0.0335923 0.00470711 0)
(0.039142 0.00725346 0)
(0.0203107 0.000558813 0)
(0.0214753 0.00245002 0)
(0.00434071 -0.00726693 0)
(0.00551264 0.00590017 0)
(-0.0018354 -0.00450475 0)
(0.010156 0.00438952 0)
(-0.00479501 0.0103149 0)
(0.010178 -0.0499269 0)
(0.00654422 0.00855549 0)
(0.0209625 0.0172595 0)
(0.0213308 0.0216769 0)
(0.0278425 0.00735475 0)
(0.02883 0.00629522 0)
(0.0330225 -0.000599931 0)
(0.0194675 -0.00766864 0)
(0.012505 -0.0105679 0)
(-0.00312972 -0.00956902 0)
(0.00407676 -0.00835598 0)
(-0.00370942 -0.00595321 0)
(0.00310166 0.00110605 0)
(0.00265968 0.00322374 0)
(-0.00344901 0.00534617 0)
(0.0010962 0.0102682 0)
(-0.00297909 0.00740546 0)
(-0.00404496 -0.0114454 0)
(0.0061293 -0.0103099 0)
(-0.00768128 -0.0315459 0)
(0.00607389 -0.0537262 0)
(-0.00234911 -0.00223774 0)
(0.0138905 0.0157825 0)
(0.0244879 0.0162709 0)
(0.0213568 0.00974497 0)
(0.0275846 0.0064621 0)
(0.0296324 0.00762355 0)
(0.0280049 0.00708231 0)
(0.0275414 0.00485813 0)
(0.0233841 0.00186615 0)
(0.0204923 0.000319517 0)
(0.0147407 0.00593166 0)
(0.0155175 0.00154983 0)
(0.0125834 0.00730456 0)
(0.017768 0.00795424 0)
(0.0110863 -0.00748139 0)
(0.0205958 0.0133982 0)
(0.0138457 -0.00787743 0)
(0.0164114 0.0084936 0)
(-0.00179645 0.0172879 0)
(0.01494 -0.044493 0)
(-0.0158655 -0.00379018 0)
(-0.00638149 -0.00130852 0)
(-0.00734809 0.0106376 0)
(-0.00034432 0.00259787 0)
(-0.0060729 0.0021596 0)
(0.000722731 -0.00124739 0)
(-0.00687304 -0.00399426 0)
(-0.00104346 -0.00474169 0)
(-0.0110026 -0.00393489 0)
(-0.00590038 -0.00202426 0)
(-0.0141573 -0.000668247 0)
(-0.000907551 0.000464418 0)
(-0.0167105 -0.000250698 0)
(0.008574 0.00648752 0)
(-0.0112413 0.00300611 0)
(0.000122337 0.00704091 0)
(0.00338297 -0.0061288 0)
(-0.0167344 -0.00157586 0)
(0.0184716 -0.0312232 0)
(0.0128862 -0.054328 0)
(0.00142745 0.0168371 0)
(0.0133483 0.0112073 0)
(0.011365 0.0081767 0)
(0.0271767 0.00838815 0)
(0.0279112 0.00596923 0)
(0.0332229 0.0058265 0)
(0.0339837 0.0078499 0)
(0.0376438 0.00743614 0)
(0.0385483 0.00761563 0)
(0.040031 0.00478799 0)
(0.0415503 0.00399656 0)
(0.0419239 0.00229944 0)
(0.0444764 0.0030012 0)
(0.0452109 -0.000137891 0)
(0.0484054 0.00405136 0)
(0.0500602 -0.00185594 0)
(0.0531389 0.00400316 0)
(0.0514012 1.49973e-06 0)
(0.0450301 -0.00442225 0)
(0.0242086 0.00234514 0)
)
;

boundaryField
{
    movingWall
    {
        type            fixedValue;
        value           uniform (1 0 0);
    }
    fixedWalls
    {
        type            noSlip;
    }
    frontAndBack
    {
        type            empty;
    }
}


// ************************************************************************* //
