/*--------------------------------*- C++ -*----------------------------------*\
| =========                 |                                                 |
| \\      /  F ield         | OpenFOAM: The Open Source CFD Toolbox           |
|  \\    /   O peration     | Version:  5.x                                   |
|   \\  /    A nd           | Web:      www.OpenFOAM.org                      |
|    \\/     M anipulation  |                                                 |
\*---------------------------------------------------------------------------*/
FoamFile
{
    version     2.0;
    format      ascii;
    class       surfaceScalarField;
    location    "14.4";
    object      phi;
}
// * * * * * * * * * * * * * * * * * * * * * * * * * * * * * * * * * * * * * //

dimensions      [0 3 -1 0 0 0 0];

internalField   nonuniform List<scalar> 
760
(
-1.07416e-06
1.07416e-06
-1.79191e-06
7.1775e-07
-2.12116e-06
3.2925e-07
-2.24926e-06
1.28099e-07
-2.31398e-06
6.47206e-08
-2.33777e-06
2.37905e-08
-2.35179e-06
1.40189e-08
-2.37665e-06
2.48616e-08
-2.36244e-06
-1.4218e-08
-2.38363e-06
2.11963e-08
-2.35762e-06
-2.60098e-08
-2.39036e-06
3.27372e-08
-2.37961e-06
-1.07457e-08
-2.37535e-06
-4.26743e-09
-2.37083e-06
-4.51247e-09
-2.31505e-06
-5.57839e-08
-2.26629e-06
-4.8762e-08
-1.92306e-06
-3.43231e-07
-1.30424e-06
-6.18821e-07
-1.30424e-06
-5.9342e-07
1.66758e-06
-9.32855e-07
1.05719e-06
-9.99919e-07
3.96314e-07
-1.06712e-06
1.95295e-07
-1.02972e-06
2.7326e-08
-1.02379e-06
1.78606e-08
-1.02782e-06
1.80471e-08
-1.01007e-06
7.11075e-09
-1.0416e-06
1.73119e-08
-1.01383e-06
-6.57442e-09
-1.04543e-06
5.5881e-09
-1.02681e-06
1.41184e-08
-1.05137e-06
1.38153e-08
-1.02468e-06
-3.09526e-08
-1.00892e-06
-2.02788e-08
-9.96781e-07
-6.79187e-08
-1.01635e-06
-2.91934e-08
-1.09005e-06
-2.69533e-07
-9.78721e-07
-7.30149e-07
-2.28296e-06
-3.21297e-07
1.98888e-06
-4.15635e-07
1.15152e-06
-3.55895e-07
3.36573e-07
-3.06999e-07
1.464e-07
-3.03087e-07
2.34141e-08
-2.95754e-07
1.05268e-08
-2.98156e-07
2.0449e-08
-3.20485e-07
2.94404e-08
-3.08838e-07
5.66439e-09
-3.41824e-07
2.64124e-08
-3.35691e-07
-5.45331e-10
-3.93137e-07
7.15645e-08
-4.05346e-07
2.60242e-08
-4.44894e-07
8.59505e-09
-4.1063e-07
-5.45423e-08
-3.78647e-07
-9.99017e-08
-3.17308e-07
-9.0533e-08
-1.79602e-07
-4.07238e-07
-2.69641e-07
-6.4011e-07
-2.5526e-06
-1.40487e-07
2.12937e-06
-2.32681e-07
1.24372e-06
-2.16298e-07
3.2019e-07
-1.78677e-07
1.08779e-07
-2.07373e-07
5.21093e-08
-2.60152e-07
6.33064e-08
-2.84932e-07
4.52287e-08
-3.15669e-07
6.01778e-08
-3.07985e-07
-2.01951e-09
-3.06069e-07
2.44959e-08
-2.57472e-07
-4.91423e-08
-2.43927e-07
5.80199e-08
-2.13941e-07
-3.962e-09
-2.02082e-07
-3.26442e-09
-2.13029e-07
-4.35945e-08
-1.33503e-07
-1.79428e-07
-2.02984e-07
-2.1052e-08
-3.0192e-07
-3.08302e-07
-2.54509e-07
-6.87521e-07
-2.80711e-06
-9.82849e-08
2.22765e-06
-1.1768e-07
1.26311e-06
-1.42866e-07
3.45376e-07
-1.62754e-07
1.28667e-07
-2.03357e-07
9.2712e-08
-2.48214e-07
1.08164e-07
-2.79376e-07
7.63912e-08
-2.88488e-07
6.92898e-08
-2.87867e-07
-2.64134e-09
-2.52706e-07
-1.0665e-08
-1.53797e-07
-1.48051e-07
-1.50395e-07
5.46179e-08
-1.09593e-07
-4.47635e-08
-8.65727e-08
-2.6285e-08
-1.2632e-07
-3.84703e-09
-1.47539e-07
-1.58209e-07
-6.62442e-08
-1.02347e-07
3.33077e-08
-4.07854e-07
-2.10328e-08
-6.33181e-07
-2.82814e-06
-4.46689e-09
2.23212e-06
5.26884e-09
1.25338e-06
-1.00063e-08
3.60651e-07
-1.25131e-07
2.43792e-07
-2.11534e-07
1.79115e-07
-2.6981e-07
1.6644e-07
-3.27588e-07
1.34169e-07
-3.47029e-07
8.87306e-08
-3.54522e-07
4.85186e-09
-3.05053e-07
-6.01341e-08
-1.77368e-07
-2.75736e-07
-1.79026e-07
5.62758e-08
-1.61289e-07
-6.25008e-08
-1.39151e-07
-4.84229e-08
-1.86339e-07
4.33407e-08
-1.87357e-07
-1.5719e-07
-1.41901e-07
-1.47803e-07
-1.09736e-07
-4.40019e-07
-1.0676e-07
-6.36157e-07
-2.9349e-06
1.1887e-08
2.22023e-06
1.01484e-08
1.25512e-06
-4.30338e-08
4.13833e-07
-9.8815e-08
2.99573e-07
-1.99394e-07
2.79694e-07
-2.77639e-07
2.44685e-07
-3.38755e-07
1.95285e-07
-3.8778e-07
1.37755e-07
-3.68976e-07
-1.39513e-08
-2.56249e-07
-1.72861e-07
-9.38121e-08
-4.38173e-07
-1.41999e-07
1.04463e-07
-1.20043e-07
-8.44567e-08
-1.02754e-07
-6.57121e-08
-2.30653e-08
-3.63481e-08
2.68375e-08
-2.07093e-07
-4.34966e-08
-7.7469e-08
-2.64392e-09
-4.80872e-07
9.94444e-09
-6.48745e-07
-2.92495e-06
-2.26849e-08
2.24291e-06
1.82344e-09
1.23061e-06
-4.25491e-08
4.58206e-07
-1.41007e-07
3.98031e-07
-2.70473e-07
4.0916e-07
-3.87967e-07
3.62179e-07
-4.56542e-07
2.63861e-07
-4.72966e-07
1.54178e-07
-4.43697e-07
-4.322e-08
-2.31487e-07
-3.85071e-07
-1.69386e-07
-5.00274e-07
-2.55153e-07
1.90229e-07
-2.82839e-07
-5.67706e-08
-2.82899e-07
-6.56524e-08
-2.16677e-07
-1.0257e-07
-2.93797e-07
-1.29973e-07
-2.14719e-07
-1.56547e-07
-5.07271e-08
-6.44863e-07
-4.94689e-08
-6.50004e-07
-2.97442e-06
4.9945e-09
2.23792e-06
1.13946e-08
1.22421e-06
-5.13154e-08
5.20916e-07
-2.07362e-07
5.54077e-07
-2.74997e-07
4.76795e-07
-3.5044e-07
4.37622e-07
-4.90107e-07
4.03527e-07
-5.40823e-07
2.04894e-07
-4.1608e-07
-1.67963e-07
-1.62384e-07
-6.38767e-07
-1.22419e-07
-5.40239e-07
-2.06799e-07
2.7461e-07
-1.99908e-07
-6.36617e-08
-2.408e-07
-2.47607e-08
-3.05241e-07
-3.81295e-08
-3.04209e-07
-1.31004e-07
-2.59883e-07
-2.00873e-07
-1.56294e-07
-7.48453e-07
-1.81984e-08
-7.88099e-07
-2.99262e-06
-4.74862e-08
2.28541e-06
-8.80139e-08
1.26474e-06
-1.69597e-07
6.02499e-07
-2.36912e-07
6.21392e-07
-3.18231e-07
5.58114e-07
-4.17224e-07
5.36616e-07
-5.909e-07
5.77203e-07
-6.97657e-07
3.11651e-07
-5.9932e-07
-2.663e-07
-4.26835e-07
-8.11251e-07
-3.52086e-07
-6.14988e-07
-3.56194e-07
2.78717e-07
-3.29945e-07
-8.99103e-08
-3.19424e-07
-3.52817e-08
-3.80952e-07
2.33989e-08
-3.07426e-07
-2.0453e-07
-2.22756e-07
-2.85543e-07
-3.00762e-07
-6.70448e-07
-7.60091e-08
-1.01285e-06
-3.06863e-06
-2.45578e-08
2.30996e-06
-4.32164e-08
1.28339e-06
-7.03838e-08
6.29667e-07
1.77226e-08
5.33286e-07
-1.08586e-07
6.84422e-07
-4.46883e-07
8.74913e-07
-6.76114e-07
8.06434e-07
-7.20158e-07
3.55695e-07
-7.27009e-07
-2.59449e-07
-6.68593e-07
-8.69667e-07
-3.76505e-07
-9.07076e-07
-3.55219e-08
-6.22659e-08
6.53471e-08
-1.90779e-07
-2.96792e-08
5.97446e-08
-5.20511e-08
4.57708e-08
-3.20388e-08
-2.24543e-07
6.3346e-08
-3.80928e-07
-3.39626e-08
-5.73139e-07
-5.89708e-08
-9.87844e-07
-3.1276e-06
3.12387e-08
2.27873e-06
1.92065e-08
1.29543e-06
9.95062e-08
5.49367e-07
-7.52531e-09
6.40317e-07
-2.36585e-07
9.13481e-07
-4.67178e-07
1.10551e-06
-6.62055e-07
1.00131e-06
-6.80147e-07
3.73787e-07
-7.12118e-07
-2.27478e-07
-7.2561e-07
-8.56175e-07
-5.50183e-07
-1.0825e-06
-4.79202e-08
-5.64529e-07
1.22154e-07
-3.60853e-07
1.95646e-07
-1.3748e-08
2.83546e-07
-4.21287e-08
1.38236e-07
-7.92331e-08
1.86822e-07
-4.29513e-07
1.68333e-07
-5.5465e-07
4.5457e-08
-8.64967e-07
-3.08214e-06
3.28261e-08
2.2459e-06
1.06987e-07
1.22127e-06
-2.02497e-08
6.76604e-07
-1.52142e-07
7.72209e-07
-1.94256e-07
9.55596e-07
-2.34868e-07
1.14612e-06
-2.60509e-07
1.02695e-06
-2.4624e-07
3.59518e-07
-1.70527e-07
-3.0319e-07
-1.20805e-07
-9.05897e-07
-1.18201e-07
-1.08511e-06
1.69171e-07
-8.51901e-07
3.60611e-07
-5.52293e-07
4.2143e-07
-7.45671e-08
4.20159e-07
-4.08576e-08
2.00771e-07
1.40155e-07
-2.40498e-09
-2.26338e-07
-2.82389e-08
-5.28816e-07
-7.58465e-09
-8.85622e-07
-3.08973e-06
9.91005e-08
2.1468e-06
9.22302e-08
1.22814e-06
1.17637e-07
6.51197e-07
1.4974e-07
7.40106e-07
1.44582e-07
9.60754e-07
1.53104e-07
1.1376e-06
2.89852e-07
8.90204e-07
3.45286e-07
3.04084e-07
3.32208e-07
-2.90113e-07
3.18738e-07
-8.92426e-07
1.03136e-07
-8.69505e-07
8.84223e-08
-8.37187e-07
-1.51761e-07
-3.12109e-07
-3.17602e-07
9.12737e-08
-3.46825e-07
-1.1635e-08
-5.21073e-07
3.14403e-07
-3.66636e-07
-3.80774e-07
-2.31372e-07
-6.6408e-07
2.26084e-08
-1.1396e-06
-3.06712e-06
9.49783e-08
2.05182e-06
1.4822e-07
1.17489e-06
2.09743e-07
5.89674e-07
3.00388e-07
6.49461e-07
3.81273e-07
8.79869e-07
5.67655e-07
9.51214e-07
7.92287e-07
6.65572e-07
9.21047e-07
1.75324e-07
9.56807e-07
-3.25873e-07
9.08301e-07
-8.4392e-07
7.82674e-07
-7.43879e-07
7.13019e-07
-7.67532e-07
7.34085e-07
-3.33175e-07
4.08071e-07
4.17287e-07
2.69548e-07
1.26888e-07
3.48533e-07
2.35418e-07
2.08803e-07
-2.41045e-07
-4.05236e-08
-4.14753e-07
-5.03476e-08
-1.12978e-06
-3.11747e-06
1.25195e-07
1.92663e-06
2.73106e-07
1.02698e-06
3.24399e-07
5.38381e-07
3.3555e-07
6.3831e-07
7.73468e-07
4.41951e-07
1.02778e-06
6.96906e-07
1.29375e-06
3.99603e-07
1.43889e-06
3.01822e-08
1.50311e-06
-3.90097e-07
1.44906e-06
-7.89869e-07
1.18668e-06
-4.815e-07
7.90596e-07
-3.71446e-07
7.74415e-07
-3.16994e-07
6.39436e-07
5.52266e-07
5.02583e-07
2.63741e-07
5.98738e-07
1.39263e-07
4.2735e-07
-6.96568e-08
2.32725e-07
-2.20129e-07
2.43255e-07
-1.14031e-06
-2.87421e-06
9.71942e-08
1.82943e-06
2.16381e-07
9.07796e-07
3.44223e-07
4.1054e-07
5.62192e-07
4.20341e-07
8.12991e-07
1.91152e-07
1.09165e-06
4.18249e-07
1.30473e-06
1.86519e-07
1.50054e-06
-1.6563e-07
1.64697e-06
-5.36521e-07
1.45339e-06
-5.96288e-07
7.69418e-07
2.0247e-07
-8.05477e-08
4.78519e-07
-7.21762e-07
3.2422e-07
-3.9204e-07
2.22544e-07
-6.52394e-08
-6.30592e-08
-1.46448e-07
2.20471e-07
3.34341e-07
-5.50446e-07
4.15127e-07
-3.00915e-07
-2.93542e-08
-6.95826e-07
-2.90357e-06
3.3883e-07
1.4906e-06
3.89419e-07
8.57206e-07
4.13041e-07
3.86918e-07
5.30856e-07
3.02527e-07
6.29944e-07
9.20638e-08
1.07615e-06
-2.79544e-08
1.32991e-06
-6.72472e-08
1.50984e-06
-3.45561e-07
1.51668e-06
-5.43358e-07
1.3119e-06
-3.91508e-07
1.23957e-06
2.74798e-07
1.24902e-06
4.69072e-07
8.99464e-07
6.73777e-07
7.86865e-07
3.35143e-07
1.02797e-06
-3.04166e-07
1.0865e-06
1.6194e-07
1.02059e-06
-4.84528e-07
7.0316e-07
1.65104e-08
4.34977e-07
-4.27643e-07
-2.46859e-06
4.41888e-07
1.04871e-06
6.80214e-07
6.18879e-07
6.85795e-07
3.81337e-07
7.32109e-07
2.56212e-07
6.54465e-07
1.69708e-07
5.06482e-07
1.20029e-07
3.28839e-07
1.10396e-07
-1.77337e-07
1.60615e-07
-8.79346e-07
1.5865e-07
-1.30891e-06
3.80541e-08
-1.09447e-06
6.03652e-08
-6.23514e-07
-1.88835e-09
-1.19371e-07
1.69633e-07
1.49428e-07
6.63447e-08
-1.22468e-07
-3.22697e-08
1.28609e-07
-8.91372e-08
-2.87006e-07
-6.89134e-08
-1.31172e-07
-1.39324e-07
6.04667e-07
-1.16348e-06
-1.86392e-06
1.04871e-06
1.66759e-06
2.04893e-06
2.30514e-06
2.47485e-06
2.59488e-06
2.70528e-06
2.86589e-06
3.02454e-06
3.06259e-06
3.12296e-06
3.12107e-06
3.2907e-06
3.35705e-06
3.32478e-06
3.23564e-06
3.16673e-06
3.0274e-06
1.86392e-06
)
;

boundaryField
{
    movingWall
    {
        type            calculated;
        value           uniform 0;
    }
    fixedWalls
    {
        type            calculated;
        value           uniform 0;
    }
    frontAndBack
    {
        type            empty;
        value           nonuniform 0();
    }
}


// ************************************************************************* //
