/*--------------------------------*- C++ -*----------------------------------*\
| =========                 |                                                 |
| \\      /  F ield         | OpenFOAM: The Open Source CFD Toolbox           |
|  \\    /   O peration     | Version:  5.x                                   |
|   \\  /    A nd           | Web:      www.OpenFOAM.org                      |
|    \\/     M anipulation  |                                                 |
\*---------------------------------------------------------------------------*/
FoamFile
{
    version     2.0;
    format      ascii;
    class       surfaceScalarField;
    location    "6.7";
    object      phi;
}
// * * * * * * * * * * * * * * * * * * * * * * * * * * * * * * * * * * * * * //

dimensions      [0 3 -1 0 0 0 0];

internalField   nonuniform List<scalar> 
760
(
-2.202e-07
2.202e-07
-5.08997e-07
2.88797e-07
-9.50252e-07
4.41255e-07
-1.57575e-06
6.25499e-07
-2.14298e-06
5.67233e-07
-2.43215e-06
2.89169e-07
-2.67696e-06
2.44802e-07
-3.01701e-06
3.40059e-07
-3.11876e-06
1.01742e-07
-2.99446e-06
-1.24296e-07
-3.02487e-06
3.04078e-08
-2.98571e-06
-3.91598e-08
-2.66758e-06
-3.18126e-07
-2.37856e-06
-2.89025e-07
-2.27246e-06
-1.061e-07
-2.17328e-06
-9.91792e-08
-2.03159e-06
-1.41693e-07
-1.74139e-06
-2.90198e-07
-1.20636e-06
-5.35032e-07
-1.20636e-06
-1.25612e-07
3.45811e-07
-2.47183e-07
4.10369e-07
-3.41841e-07
5.35912e-07
-4.29897e-07
7.13556e-07
-7.05696e-07
8.43032e-07
-1.26737e-06
8.50842e-07
-1.78075e-06
7.5818e-07
-1.95473e-06
5.14045e-07
-2.07005e-06
2.17063e-07
-2.19136e-06
-2.98996e-09
-2.01824e-06
-1.42715e-07
-1.72984e-06
-3.27559e-07
-1.5792e-06
-4.68764e-07
-1.41935e-06
-4.48873e-07
-1.22096e-06
-3.04488e-07
-1.08206e-06
-2.38079e-07
-1.06329e-06
-1.60461e-07
-1.00582e-06
-3.47672e-07
-7.67214e-07
-7.73639e-07
-1.97357e-06
-6.51995e-08
4.11011e-07
-1.16025e-07
4.61194e-07
-1.25823e-07
5.4571e-07
-7.83936e-08
6.66127e-07
-2.07354e-08
7.85373e-07
-7.09987e-09
8.37206e-07
-3.16363e-08
7.82717e-07
-1.31779e-07
6.14187e-07
-2.79387e-07
3.64672e-07
-3.74463e-07
9.2086e-08
-3.85215e-07
-1.31963e-07
-3.84974e-07
-3.278e-07
-4.08497e-07
-4.45241e-07
-3.99821e-07
-4.57549e-07
-3.53328e-07
-3.5098e-07
-2.91853e-07
-2.99554e-07
-2.67186e-07
-1.85129e-07
-2.87573e-07
-3.27285e-07
-3.20613e-07
-7.40599e-07
-2.29418e-06
-2.26857e-08
4.33696e-07
-3.33542e-08
4.71863e-07
-1.2462e-08
5.24818e-07
5.75398e-08
5.96125e-07
1.76851e-07
6.66062e-07
3.15902e-07
6.98155e-07
4.3275e-07
6.65869e-07
4.90165e-07
5.56772e-07
4.91216e-07
3.6362e-07
4.53848e-07
1.29454e-07
3.94363e-07
-7.24782e-08
3.06537e-07
-2.39974e-07
1.84019e-07
-3.22723e-07
7.72248e-08
-3.50755e-07
-7.69601e-09
-2.6606e-07
-5.68931e-08
-2.50357e-07
-5.83422e-08
-1.8368e-07
-8.49647e-08
-3.00662e-07
-1.35038e-07
-6.90525e-07
-2.42922e-06
5.06879e-09
4.28628e-07
1.83088e-08
4.58623e-07
5.2634e-08
4.90493e-07
1.19261e-07
5.29497e-07
2.22417e-07
5.62907e-07
3.48596e-07
5.71976e-07
4.73893e-07
5.40572e-07
5.73821e-07
4.56844e-07
6.16681e-07
3.2076e-07
5.94994e-07
1.51141e-07
5.13618e-07
8.89735e-09
4.0392e-07
-1.30275e-07
2.64598e-07
-1.83401e-07
1.59898e-07
-2.46055e-07
8.03364e-08
-1.86498e-07
4.87583e-08
-2.18779e-07
2.40688e-08
-1.5899e-07
9.32583e-09
-2.8592e-07
-1.25968e-08
-6.68602e-07
-2.44182e-06
2.12826e-08
4.07345e-07
4.74583e-08
4.32447e-07
8.70552e-08
4.50896e-07
1.45797e-07
4.70756e-07
2.24981e-07
4.83723e-07
3.18564e-07
4.78393e-07
4.12337e-07
4.46799e-07
4.8835e-07
3.80831e-07
5.21379e-07
2.87731e-07
5.06507e-07
1.66014e-07
4.52366e-07
6.30376e-08
3.78635e-07
-5.65439e-08
2.75704e-07
-8.04694e-08
1.97577e-07
-1.67928e-07
1.14568e-07
-1.0349e-07
7.13227e-08
-1.75533e-07
2.18007e-08
-1.09468e-07
-2.7877e-09
-2.61331e-07
-3.71334e-08
-6.34257e-07
-2.47895e-06
3.1371e-08
3.75974e-07
6.47504e-08
3.99067e-07
1.05225e-07
4.10421e-07
1.55288e-07
4.20693e-07
2.15593e-07
4.23417e-07
2.81803e-07
4.12184e-07
3.4581e-07
3.82793e-07
3.98399e-07
3.28242e-07
4.24236e-07
2.61894e-07
4.23306e-07
1.66943e-07
3.85492e-07
1.00852e-07
3.31807e-07
-2.85888e-09
2.55392e-07
-4.05469e-09
1.95082e-07
-1.07618e-07
1.28063e-07
-3.64709e-08
8.60106e-08
-1.33481e-07
3.47245e-08
-5.81823e-08
-4.20573e-10
-2.26186e-07
-3.58808e-08
-5.98796e-07
-2.51483e-06
3.77187e-08
3.38255e-07
7.30878e-08
3.63698e-07
1.10803e-07
3.72706e-07
1.53197e-07
3.78299e-07
1.9939e-07
3.77224e-07
2.48127e-07
3.63447e-07
2.91998e-07
3.38921e-07
3.26863e-07
2.93377e-07
3.41729e-07
2.47027e-07
3.38827e-07
1.69845e-07
3.0637e-07
1.33309e-07
2.70383e-07
3.31287e-08
2.13717e-07
5.26109e-08
1.66139e-07
-6.00394e-08
1.09098e-07
2.05695e-08
6.82816e-08
-9.26645e-08
2.19159e-08
-1.18165e-08
-1.02985e-08
-1.93972e-07
9.84227e-09
-6.18937e-07
-2.50499e-06
4.44526e-08
2.93803e-07
8.47056e-08
3.23445e-07
1.21491e-07
3.3592e-07
1.55108e-07
3.44682e-07
1.8885e-07
3.43482e-07
2.20554e-07
3.31743e-07
2.49305e-07
3.1017e-07
2.71964e-07
2.70718e-07
2.82292e-07
2.36699e-07
2.83445e-07
1.68692e-07
2.67245e-07
1.49509e-07
2.43158e-07
5.7215e-08
2.07247e-07
8.85224e-08
1.6673e-07
-1.95221e-08
1.22902e-07
6.43975e-08
7.34999e-08
-4.32629e-08
2.7942e-08
3.37414e-08
-2.47699e-08
-1.4126e-07
-1.49354e-08
-6.28772e-07
-2.51992e-06
5.34458e-08
2.40357e-07
8.53966e-08
2.91494e-07
1.11833e-07
3.09484e-07
1.39283e-07
3.17232e-07
1.65545e-07
3.1722e-07
1.93899e-07
3.0339e-07
2.15581e-07
2.88488e-07
2.3135e-07
2.54949e-07
2.35865e-07
2.32184e-07
2.29893e-07
1.74665e-07
2.1249e-07
1.66912e-07
1.83527e-07
8.61784e-08
1.53671e-07
1.18379e-07
1.1691e-07
1.72382e-08
8.60806e-08
9.52273e-08
5.49478e-08
-1.21301e-08
1.83869e-08
7.03023e-08
-2.98989e-08
-9.2974e-08
-3.56484e-08
-6.23022e-07
-2.55557e-06
6.93715e-08
1.70986e-07
1.23022e-07
2.37844e-07
1.5479e-07
2.77717e-07
1.66344e-07
3.05677e-07
1.75551e-07
3.08013e-07
1.78567e-07
3.00374e-07
1.85241e-07
2.81815e-07
1.90433e-07
2.49757e-07
1.95856e-07
2.2676e-07
1.94593e-07
1.75928e-07
1.92907e-07
1.68598e-07
1.80904e-07
9.81813e-08
1.7236e-07
1.26923e-07
1.47585e-07
4.2013e-08
1.23722e-07
1.1909e-07
6.97485e-08
4.18434e-08
3.43082e-08
1.05743e-07
-3.52408e-08
-2.34249e-08
-3.49964e-08
-6.23267e-07
-2.59057e-06
1.12901e-07
5.80842e-08
1.0904e-07
2.41705e-07
1.03455e-07
2.83302e-07
1.15216e-07
2.93915e-07
1.34402e-07
2.88827e-07
1.58964e-07
2.75812e-07
1.7048e-07
2.70299e-07
1.75269e-07
2.44968e-07
1.73759e-07
2.28271e-07
1.63059e-07
1.86627e-07
1.50302e-07
1.81355e-07
1.22191e-07
1.26292e-07
1.0428e-07
1.44834e-07
5.73586e-08
8.8934e-08
5.73606e-08
1.19088e-07
1.26487e-08
8.65554e-08
3.2077e-08
8.63142e-08
3.31215e-08
-2.44694e-08
2.67371e-08
-6.16882e-07
-2.56383e-06
1.83958e-07
-1.25874e-07
2.29293e-07
1.9637e-07
2.38093e-07
2.74502e-07
1.92267e-07
3.39742e-07
1.53868e-07
3.27227e-07
1.17526e-07
3.12154e-07
1.11068e-07
2.76757e-07
1.08966e-07
2.4707e-07
1.20585e-07
2.16652e-07
1.17958e-07
1.89254e-07
1.32365e-07
1.66948e-07
1.17917e-07
1.4074e-07
1.44871e-07
1.17881e-07
1.28887e-07
1.04918e-07
1.41952e-07
1.06023e-07
1.19021e-07
1.09486e-07
9.78365e-08
1.07499e-07
1.64954e-08
5.68717e-08
-3.6739e-08
-5.63648e-07
-2.60057e-06
3.60479e-07
-4.86352e-07
2.01027e-07
3.55821e-07
1.82825e-07
2.92704e-07
2.19172e-07
3.03394e-07
2.24393e-07
3.22005e-07
2.12953e-07
3.23594e-07
1.93664e-07
2.96045e-07
1.74627e-07
2.66107e-07
1.62244e-07
2.29035e-07
1.42333e-07
2.09165e-07
1.27809e-07
1.81472e-07
9.88832e-08
1.69665e-07
6.59625e-08
1.50801e-07
2.34402e-08
1.47441e-07
-1.77875e-08
1.47251e-07
-1.25634e-07
2.17332e-07
1.50707e-08
-3.32059e-08
6.88881e-08
3.05434e-09
3.07246e-08
-5.25484e-07
-2.56985e-06
2.32035e-07
-7.18387e-07
2.26413e-07
3.61442e-07
5.44139e-09
5.13676e-07
-1.28381e-07
4.37217e-07
-1.60223e-07
3.53847e-07
-1.31192e-07
2.94562e-07
-8.92599e-08
2.54114e-07
-5.38517e-08
2.30699e-07
-1.81845e-08
1.93368e-07
-3.41766e-09
1.94398e-07
1.69228e-08
1.61132e-07
3.37722e-09
1.83211e-07
5.45846e-08
9.95939e-08
-2.08717e-08
2.22897e-07
1.22706e-07
3.67374e-09
1.56138e-07
1.839e-07
8.05931e-08
4.23388e-08
-1.21617e-08
9.58092e-08
-1.20374e-08
-5.25609e-07
-2.58188e-06
-5.11254e-08
-6.67261e-07
1.7252e-07
1.37797e-07
3.16716e-07
3.69481e-07
3.93686e-07
3.60247e-07
4.2555e-07
3.21983e-07
4.01565e-07
3.18547e-07
4.14319e-07
2.4136e-07
3.84082e-07
2.60936e-07
3.6858e-07
2.0887e-07
3.2153e-07
2.41448e-07
3.0628e-07
1.76382e-07
2.47772e-07
2.41719e-07
2.69705e-07
7.76613e-08
1.92507e-07
3.00095e-07
7.5929e-08
1.20251e-07
-1.49633e-08
2.74792e-07
5.96916e-08
-3.23161e-08
3.79179e-08
1.17583e-07
3.15143e-08
-5.19205e-07
-2.55037e-06
-2.5826e-07
-4.09001e-07
-5.23197e-07
4.02733e-07
-3.31323e-07
1.77607e-07
-3.25087e-07
3.5401e-07
-3.28102e-07
3.24998e-07
-2.8836e-07
2.78805e-07
-3.22231e-07
2.7523e-07
-2.94933e-07
2.33638e-07
-3.16924e-07
2.30861e-07
-2.92474e-07
2.16997e-07
-2.9597e-07
1.79878e-07
-2.53046e-07
1.98795e-07
-2.76678e-07
1.01293e-07
-2.55872e-07
2.79289e-07
-1.35603e-07
-1.73707e-11
-2.39413e-07
3.78602e-07
1.18728e-07
-3.90458e-07
1.74297e-07
6.20142e-08
5.59248e-08
-4.00833e-07
-2.49445e-06
3.25657e-08
-4.41567e-07
3.61671e-07
7.36285e-08
2.57849e-07
2.81429e-07
3.32208e-07
2.79651e-07
3.81042e-07
2.76165e-07
4.4435e-07
2.15497e-07
4.95137e-07
2.24443e-07
5.54775e-07
1.74e-07
6.06349e-07
1.79288e-07
6.29309e-07
1.94037e-07
6.62627e-07
1.4656e-07
6.63428e-07
1.97995e-07
6.63916e-07
1.00804e-07
5.51237e-07
3.91969e-07
6.422e-07
-9.09811e-08
6.20986e-07
3.99817e-07
4.01048e-07
-1.7052e-07
1.91351e-07
2.71712e-07
2.46417e-07
-4.55899e-07
-2.24803e-06
-8.20437e-07
3.7887e-07
-9.81076e-07
2.34267e-07
-9.60612e-07
2.60965e-07
-8.50673e-07
1.69712e-07
-7.58491e-07
1.83983e-07
-6.84797e-07
1.41803e-07
-6.23795e-07
1.63441e-07
-5.75303e-07
1.25509e-07
-5.22569e-07
1.26553e-07
-4.58306e-07
1.29774e-07
-4.04589e-07
9.28428e-08
-3.28363e-07
1.21769e-07
-3.05012e-07
7.74538e-08
-8.05413e-08
1.67498e-07
-2.6676e-07
9.52379e-08
1.67769e-08
1.1628e-07
-1.06469e-07
-4.72739e-08
1.82042e-07
-1.67992e-08
6.80671e-07
-9.54529e-07
-1.56736e-06
3.7887e-07
6.13137e-07
8.74103e-07
1.04381e-06
1.2278e-06
1.3696e-06
1.53304e-06
1.65855e-06
1.7851e-06
1.91488e-06
2.00772e-06
2.12949e-06
2.20694e-06
2.37444e-06
2.46968e-06
2.58596e-06
2.53868e-06
2.52189e-06
1.56736e-06
)
;

boundaryField
{
    movingWall
    {
        type            calculated;
        value           uniform 0;
    }
    fixedWalls
    {
        type            calculated;
        value           uniform 0;
    }
    frontAndBack
    {
        type            empty;
        value           nonuniform 0();
    }
}


// ************************************************************************* //
