/*--------------------------------*- C++ -*----------------------------------*\
| =========                 |                                                 |
| \\      /  F ield         | OpenFOAM: The Open Source CFD Toolbox           |
|  \\    /   O peration     | Version:  5.x                                   |
|   \\  /    A nd           | Web:      www.OpenFOAM.org                      |
|    \\/     M anipulation  |                                                 |
\*---------------------------------------------------------------------------*/
FoamFile
{
    version     2.0;
    format      ascii;
    class       volScalarField;
    location    "7";
    object      p;
}
// * * * * * * * * * * * * * * * * * * * * * * * * * * * * * * * * * * * * * //

dimensions      [0 2 -2 0 0 0 0];

internalField   nonuniform List<scalar> 
400
(
5.86622e-11
-1.66303e-05
-0.000156758
-0.000434593
-0.000725426
-0.00100366
-0.00125882
-0.00133544
-0.001322
-0.00127682
-0.00111986
-0.000871008
-0.000721324
-0.000672396
-0.000626743
-0.000567372
-0.000496815
-0.000342052
-9.26059e-05
0.000666789
-0.000196393
-0.000233124
-0.000366949
-0.000552525
-0.000730043
-0.00101275
-0.00137419
-0.00150108
-0.0014285
-0.0014186
-0.0012365
-0.000915101
-0.000728378
-0.000681651
-0.000657357
-0.00061397
-0.000622427
-0.000579111
-0.000486861
2.25844e-05
-0.000349255
-0.000387
-0.000483764
-0.000656249
-0.000890118
-0.00121835
-0.00141074
-0.00145612
-0.00141425
-0.00133944
-0.00116385
-0.0009261
-0.000773164
-0.000696617
-0.000673258
-0.000638399
-0.000663304
-0.000640226
-0.000624579
-0.000378509
-0.000465121
-0.000498392
-0.000573669
-0.000699144
-0.000864965
-0.00104167
-0.00118653
-0.00126797
-0.00127607
-0.00121363
-0.00109303
-0.000928798
-0.000817081
-0.000737116
-0.00071895
-0.000673259
-0.000697044
-0.000666344
-0.000699335
-0.000571373
-0.000548248
-0.000575313
-0.000632016
-0.000718725
-0.000827471
-0.000943777
-0.00104801
-0.0011105
-0.00111794
-0.00107212
-0.000994042
-0.000891226
-0.000819794
-0.000750313
-0.000749998
-0.000695094
-0.0007293
-0.000679715
-0.000728301
-0.000649878
-0.000605448
-0.000626239
-0.000667699
-0.000727753
-0.000801048
-0.000878002
-0.000945322
-0.000985039
-0.000989883
-0.000966124
-0.000926239
-0.000863929
-0.000821808
-0.000763175
-0.00076624
-0.000709785
-0.000746627
-0.000689582
-0.000755453
-0.000692816
-0.000644156
-0.000659964
-0.000690561
-0.000733416
-0.000784155
-0.000835989
-0.000881447
-0.00091135
-0.000922324
-0.000914434
-0.000886999
-0.000844398
-0.000819995
-0.000772517
-0.000782015
-0.000728952
-0.000766572
-0.000703336
-0.000754825
-0.000692239
-0.000670092
-0.000682776
-0.000706078
-0.000737475
-0.000773651
-0.000809427
-0.000840631
-0.000861219
-0.000869861
-0.000862409
-0.000847912
-0.000819084
-0.000809045
-0.000766444
-0.000781674
-0.000727777
-0.000769737
-0.00070663
-0.000762993
-0.000710261
-0.000686543
-0.000697558
-0.000716606
-0.00074094
-0.000767738
-0.000793832
-0.0008166
-0.000832518
-0.000840919
-0.000839653
-0.000833754
-0.000815073
-0.000810832
-0.000779976
-0.000793346
-0.000753401
-0.000786849
-0.000737763
-0.000794498
-0.000748826
-0.000696095
-0.000708027
-0.00072475
-0.00074439
-0.000764528
-0.000782866
-0.000799006
-0.00080948
-0.000815574
-0.000811663
-0.000809777
-0.00079004
-0.000795243
-0.000762962
-0.0007863
-0.000741095
-0.000787445
-0.000731862
-0.000804615
-0.000760528
-0.000698959
-0.000713392
-0.000730239
-0.000747628
-0.000764227
-0.00077938
-0.000791976
-0.000800987
-0.000806599
-0.000807057
-0.00080771
-0.000799332
-0.000802131
-0.000783775
-0.000797199
-0.000767637
-0.00079832
-0.000758394
-0.000814034
-0.000764983
-0.000698372
-0.000723768
-0.000737824
-0.000753962
-0.000765136
-0.000773615
-0.000782322
-0.000786126
-0.000790415
-0.000786748
-0.000788826
-0.000775326
-0.000782624
-0.000759295
-0.000780028
-0.000744745
-0.000791104
-0.000740034
-0.000796427
-0.000743581
-0.000691899
-0.000727374
-0.000743717
-0.000757368
-0.000769785
-0.000780689
-0.000786734
-0.00079113
-0.000793025
-0.000793716
-0.000794509
-0.000791347
-0.000795044
-0.000785472
-0.000799838
-0.000778291
-0.000799462
-0.000758297
-0.000839347
-0.00074778
-0.000725259
-0.000792159
-0.000756963
-0.000774822
-0.000776426
-0.000777188
-0.000777823
-0.000775774
-0.000778316
-0.000774481
-0.000776573
-0.000768672
-0.000771546
-0.000758421
-0.00075903
-0.000747561
-0.000782413
-0.000734439
-0.000767301
-0.000736562
-0.000791829
-0.000866322
-0.000778423
-0.000789347
-0.000792713
-0.000789945
-0.000782732
-0.000787449
-0.000783406
-0.000788688
-0.000783215
-0.000793305
-0.000782435
-0.00078999
-0.000802236
-0.000792357
-0.000819705
-0.000754867
-0.000823527
-0.000741355
-0.000904335
-0.000871076
-0.000804941
-0.000808957
-0.000797377
-0.000778386
-0.000778872
-0.000775652
-0.000778288
-0.00077092
-0.00077482
-0.000768023
-0.000775263
-0.000780596
-0.000753687
-0.000735447
-0.000737981
-0.000749065
-0.00077008
-0.000739384
-0.000692597
-0.000811724
-0.000808066
-0.000761324
-0.00078689
-0.000763698
-0.000769541
-0.000773849
-0.000775483
-0.000784411
-0.000785372
-0.000789586
-0.00078069
-0.000815882
-0.000769014
-0.000808017
-0.000857349
-0.000750502
-0.000847109
-0.000638316
-0.000707078
-0.000907693
-0.000810436
-0.000767459
-0.000782838
-0.000756061
-0.000767514
-0.000759823
-0.000773403
-0.000768441
-0.000769442
-0.000768635
-0.000771294
-0.000774236
-0.000772238
-0.000853648
-0.000776574
-0.000667424
-0.000652539
-0.000458364
-0.000656867
-0.000805842
-0.000824884
-0.00079016
-0.00076242
-0.000751739
-0.000751464
-0.000756088
-0.000771685
-0.000766328
-0.000789804
-0.00075185
-0.000820551
-0.000747357
-0.000788073
-0.000866947
-0.000727141
-0.000866889
-0.000726612
-0.000267346
-0.000817377
-0.000770233
-0.000723398
-0.000794162
-0.000749264
-0.000743949
-0.000747045
-0.000755274
-0.000755691
-0.000756784
-0.00075396
-0.000742716
-0.000725694
-0.000715786
-0.000752689
-0.000773317
-0.000737629
-0.00049085
-8.79842e-05
0.00117653
)
;

boundaryField
{
    movingWall
    {
        type            zeroGradient;
    }
    fixedWalls
    {
        type            zeroGradient;
    }
    frontAndBack
    {
        type            empty;
    }
}


// ************************************************************************* //
