/*--------------------------------*- C++ -*----------------------------------*\
| =========                 |                                                 |
| \\      /  F ield         | OpenFOAM: The Open Source CFD Toolbox           |
|  \\    /   O peration     | Version:  5.x                                   |
|   \\  /    A nd           | Web:      www.OpenFOAM.org                      |
|    \\/     M anipulation  |                                                 |
\*---------------------------------------------------------------------------*/
FoamFile
{
    version     2.0;
    format      ascii;
    class       surfaceScalarField;
    location    "7";
    object      phi;
}
// * * * * * * * * * * * * * * * * * * * * * * * * * * * * * * * * * * * * * //

dimensions      [0 3 -1 0 0 0 0];

internalField   nonuniform List<scalar> 
760
(
-4.74183e-07
4.74183e-07
-1.07985e-06
6.05668e-07
-1.73851e-06
6.58656e-07
-2.16615e-06
4.27638e-07
-2.42752e-06
2.61375e-07
-2.79784e-06
3.70318e-07
-3.07627e-06
2.78436e-07
-3.03037e-06
-4.59055e-08
-3.06348e-06
3.31144e-08
-3.08652e-06
2.30324e-08
-2.76336e-06
-3.23152e-07
-2.41885e-06
-3.44516e-07
-2.32527e-06
-9.35775e-08
-2.28396e-06
-4.13081e-08
-2.1951e-06
-8.88607e-08
-2.09678e-06
-9.83222e-08
-2.02841e-06
-6.83647e-08
-1.78296e-06
-2.45458e-07
-1.24178e-06
-5.41174e-07
-1.24178e-06
-1.62472e-07
6.36655e-07
-3.08595e-07
7.51791e-07
-5.41e-07
8.9106e-07
-1.05422e-06
9.40858e-07
-1.66746e-06
8.7462e-07
-1.9526e-06
6.55452e-07
-2.05038e-06
3.76221e-07
-2.20246e-06
1.06168e-07
-2.12103e-06
-4.83099e-08
-1.84987e-06
-2.48133e-07
-1.72192e-06
-4.511e-07
-1.59337e-06
-4.73065e-07
-1.33673e-06
-3.50214e-07
-1.10288e-06
-2.75165e-07
-1.02881e-06
-1.62924e-07
-1.00269e-06
-1.24442e-07
-1.03095e-06
-4.01081e-08
-9.92751e-07
-2.83657e-07
-7.76072e-07
-7.57853e-07
-2.01785e-06
-3.81349e-08
6.7479e-07
-3.61719e-08
7.49829e-07
8.90773e-11
8.54799e-07
7.85932e-09
9.33087e-07
-3.07641e-08
9.13243e-07
-1.42678e-07
7.67365e-07
-2.98521e-07
5.32065e-07
-4.24313e-07
2.3196e-07
-4.52352e-07
-2.02715e-08
-4.42201e-07
-2.58284e-07
-4.62762e-07
-4.30539e-07
-4.57236e-07
-4.78591e-07
-4.02248e-07
-4.05203e-07
-3.36717e-07
-3.40695e-07
-2.95629e-07
-2.04012e-07
-2.35471e-07
-1.846e-07
-2.02632e-07
-7.29468e-08
-2.22831e-07
-2.63458e-07
-2.88395e-07
-6.92288e-07
-2.30625e-06
2.03278e-08
6.54462e-07
6.86432e-08
7.01513e-07
1.67612e-07
7.5583e-07
3.03224e-07
7.97476e-07
4.30819e-07
7.85648e-07
5.04706e-07
6.93479e-07
5.21773e-07
5.14998e-07
4.88028e-07
2.65705e-07
4.40033e-07
2.7723e-08
3.60446e-07
-1.78696e-07
2.44818e-07
-3.14911e-07
1.32694e-07
-3.66467e-07
4.64262e-08
-3.18935e-07
-1.71339e-08
-2.77135e-07
-6.1098e-08
-1.60048e-07
-7.15382e-08
-1.7416e-07
-5.29102e-08
-9.15747e-08
-6.89991e-08
-2.47369e-07
-1.23108e-07
-6.38179e-07
-2.42936e-06
4.9034e-08
6.05428e-07
1.14144e-07
6.36404e-07
2.11761e-07
6.58212e-07
3.40173e-07
6.69064e-07
4.78344e-07
6.47476e-07
5.96709e-07
5.75114e-07
6.67366e-07
4.44341e-07
6.68591e-07
2.6448e-07
6.09239e-07
8.70748e-08
5.00931e-07
-7.03877e-08
3.57184e-07
-1.71164e-07
2.25798e-07
-2.3508e-07
1.125e-07
-2.05637e-07
4.88523e-08
-2.13488e-07
1.9515e-08
-1.30711e-07
7.26299e-09
-1.61908e-07
7.22195e-10
-8.5034e-08
-9.28804e-09
-2.37359e-07
-4.70641e-08
-6.00403e-07
-2.47642e-06
6.11562e-08
5.44272e-07
1.29667e-07
5.67893e-07
2.14426e-07
5.73453e-07
3.15639e-07
5.67851e-07
4.23011e-07
5.40103e-07
5.18612e-07
4.79514e-07
5.78004e-07
3.84948e-07
5.82926e-07
2.59559e-07
5.37806e-07
1.32195e-07
4.65225e-07
2.19344e-09
3.58678e-07
-6.4617e-08
2.6388e-07
-1.40282e-07
1.69666e-07
-1.11424e-07
1.12542e-07
-1.56363e-07
5.63966e-08
-7.45654e-08
2.79148e-08
-1.33426e-07
4.45017e-09
-6.15693e-08
-9.51203e-09
-2.23397e-07
-8.73082e-09
-6.01185e-07
-2.48515e-06
6.49447e-08
4.79327e-07
1.32202e-07
5.00636e-07
2.05395e-07
5.0026e-07
2.83321e-07
4.89925e-07
3.61013e-07
4.62412e-07
4.27971e-07
4.12555e-07
4.71456e-07
3.41463e-07
4.83157e-07
2.47858e-07
4.57938e-07
1.57414e-07
4.05025e-07
5.51061e-08
3.27728e-07
1.26799e-08
2.56897e-07
-6.94513e-08
1.81973e-07
-3.64997e-08
1.32414e-07
-1.06805e-07
8.28944e-08
-2.50454e-08
5.07066e-08
-1.01238e-07
1.53937e-08
-2.62565e-08
-1.69133e-08
-1.9109e-07
-3.66878e-09
-6.14429e-07
-2.48882e-06
6.54289e-08
4.13898e-07
1.26418e-07
4.39647e-07
1.87161e-07
4.39517e-07
2.48316e-07
4.28771e-07
3.04965e-07
4.05763e-07
3.52974e-07
3.64546e-07
3.82724e-07
3.11713e-07
3.9086e-07
2.39722e-07
3.69997e-07
1.78277e-07
3.31449e-07
9.36538e-08
2.75334e-07
6.87954e-08
2.22809e-07
-1.69266e-08
1.63088e-07
2.32216e-08
1.18661e-07
-6.23773e-08
7.15245e-08
2.20909e-08
3.59486e-08
-6.56625e-08
1.35658e-09
8.33553e-09
-3.5642e-08
-1.54091e-07
-3.33875e-08
-6.16684e-07
-2.52221e-06
6.6766e-08
3.47132e-07
1.28625e-07
3.77787e-07
1.83851e-07
3.84291e-07
2.30452e-07
3.8217e-07
2.70633e-07
3.65582e-07
3.00629e-07
3.34549e-07
3.18959e-07
2.93384e-07
3.2373e-07
2.34951e-07
3.11666e-07
1.90342e-07
2.90282e-07
1.15037e-07
2.55493e-07
1.03584e-07
2.16794e-07
2.17725e-08
1.76051e-07
6.39645e-08
1.37159e-07
-2.34851e-08
9.85286e-08
6.0721e-08
5.15434e-08
-1.86773e-08
1.02667e-08
4.96122e-08
-3.97319e-08
-1.04093e-07
-3.75172e-08
-6.18898e-07
-2.55973e-06
7.48547e-08
2.72277e-07
1.20769e-07
3.31873e-07
1.573e-07
3.4776e-07
1.92535e-07
3.46935e-07
2.22568e-07
3.35549e-07
2.50836e-07
3.06281e-07
2.65933e-07
2.78287e-07
2.6977e-07
2.31113e-07
2.57775e-07
2.02337e-07
2.34491e-07
1.38321e-07
2.03061e-07
1.35014e-07
1.65863e-07
5.89708e-08
1.32634e-07
9.71936e-08
9.46726e-08
1.44759e-08
6.89472e-08
8.64464e-08
4.75979e-08
2.67206e-09
1.9307e-08
7.79032e-08
-1.68769e-08
-6.79089e-08
-1.44564e-10
-6.35631e-07
-2.55987e-06
8.77395e-08
1.84538e-07
1.56508e-07
2.63105e-07
2.01581e-07
3.02687e-07
2.18865e-07
3.29651e-07
2.29129e-07
3.25285e-07
2.27902e-07
3.07508e-07
2.27103e-07
2.79086e-07
2.22359e-07
2.35857e-07
2.17521e-07
2.07175e-07
2.05241e-07
1.50602e-07
1.95416e-07
1.44838e-07
1.75537e-07
7.88503e-08
1.63543e-07
1.09188e-07
1.40392e-07
3.76264e-08
1.16247e-07
1.10592e-07
6.74531e-08
5.14658e-08
4.13784e-08
1.03978e-07
-1.58857e-08
-1.06447e-08
-1.99395e-08
-6.31577e-07
-2.57981e-06
1.44091e-07
4.0447e-08
1.39691e-07
2.67505e-07
1.33872e-07
3.08506e-07
1.46902e-07
3.16622e-07
1.68558e-07
3.03629e-07
1.95239e-07
2.80828e-07
2.03484e-07
2.7084e-07
2.02195e-07
2.37145e-07
1.91315e-07
2.18055e-07
1.71767e-07
1.70151e-07
1.50146e-07
1.66459e-07
1.17005e-07
1.11992e-07
9.43291e-08
1.31864e-07
4.51535e-08
8.68021e-08
5.01943e-08
1.05551e-07
8.86002e-09
9.28001e-08
3.27355e-08
8.01024e-08
4.46004e-08
-2.25096e-08
4.00713e-09
-5.90984e-07
-2.5758e-06
2.32629e-07
-1.92182e-07
2.59329e-07
2.40804e-07
2.69405e-07
2.98431e-07
2.1742e-07
3.68606e-07
1.73838e-07
3.47211e-07
1.33366e-07
3.21299e-07
1.25223e-07
2.78983e-07
1.19473e-07
2.42896e-07
1.30106e-07
2.07422e-07
1.22512e-07
1.77744e-07
1.36114e-07
1.52857e-07
1.14644e-07
1.33462e-07
1.44572e-07
1.01936e-07
1.27652e-07
1.03722e-07
1.3786e-07
9.5343e-08
1.16067e-07
1.14593e-07
9.85891e-08
9.758e-08
2.45552e-08
5.15243e-08
-2.05964e-08
-5.45832e-07
-2.5964e-06
3.6882e-07
-5.61001e-07
2.39915e-07
3.69708e-07
2.44071e-07
2.94275e-07
2.94435e-07
3.18242e-07
2.99945e-07
3.41701e-07
2.73343e-07
3.47901e-07
2.41203e-07
3.11123e-07
2.09807e-07
2.74291e-07
1.87217e-07
2.30012e-07
1.59442e-07
2.0552e-07
1.38301e-07
1.73998e-07
1.05496e-07
1.66266e-07
6.1302e-08
1.4613e-07
2.03679e-08
1.44656e-07
-3.17671e-08
1.47478e-07
-1.51157e-07
2.33983e-07
9.38746e-09
-6.29641e-08
7.85869e-08
-1.76752e-08
4.92253e-08
-5.1647e-07
-2.54717e-06
1.66715e-07
-7.27716e-07
1.8696e-07
3.49463e-07
-5.19943e-08
5.33229e-07
-1.61242e-07
4.2749e-07
-1.85054e-07
3.65514e-07
-1.43419e-07
3.06266e-07
-1.03264e-07
2.70969e-07
-6.61182e-08
2.37145e-07
-3.18645e-08
1.95758e-07
-1.55043e-08
1.8916e-07
-8.46053e-11
1.58579e-07
-1.56101e-08
1.81792e-07
3.6926e-08
9.35937e-08
-5.24041e-08
2.33986e-07
1.06098e-07
-1.10241e-08
1.50182e-07
1.89899e-07
5.67344e-08
3.04836e-08
-4.48072e-08
8.38664e-08
-6.05792e-08
-5.00698e-07
-2.60775e-06
-5.23028e-08
-6.75413e-07
1.4374e-07
1.5342e-07
2.57972e-07
4.18997e-07
3.55169e-07
3.30293e-07
3.94534e-07
3.26149e-07
3.97241e-07
3.03559e-07
4.35599e-07
2.32611e-07
4.19831e-07
2.52913e-07
4.16843e-07
1.98746e-07
3.70713e-07
2.35289e-07
3.5976e-07
1.69532e-07
2.91407e-07
2.50145e-07
3.19238e-07
6.57627e-08
2.24793e-07
3.28431e-07
1.01675e-07
1.12094e-07
1.5099e-08
2.76474e-07
6.4337e-08
-1.87543e-08
5.42654e-08
9.3938e-08
5.79388e-08
-5.04372e-07
-2.54981e-06
-2.29525e-07
-4.45889e-07
-4.90913e-07
4.14808e-07
-2.97874e-07
2.25957e-07
-3.19084e-07
3.51503e-07
-3.0851e-07
3.15575e-07
-2.81611e-07
2.7666e-07
-3.12025e-07
2.63025e-07
-2.8827e-07
2.29158e-07
-3.19946e-07
2.30423e-07
-2.93506e-07
2.08849e-07
-3.05743e-07
1.81769e-07
-2.52858e-07
1.9726e-07
-2.85817e-07
9.87215e-08
-2.47451e-07
2.90065e-07
-1.31688e-07
-3.66942e-09
-2.39671e-07
3.84457e-07
1.34617e-07
-3.93042e-07
1.60996e-07
6.75591e-08
3.75884e-08
-3.80964e-07
-2.51223e-06
4.57252e-09
-4.50461e-07
3.43336e-07
7.60454e-08
2.62864e-07
3.06428e-07
3.24871e-07
2.89496e-07
3.7723e-07
2.63216e-07
4.31107e-07
2.22783e-07
4.75492e-07
2.18639e-07
5.3169e-07
1.72961e-07
5.74451e-07
1.87662e-07
6.02586e-07
1.80713e-07
6.29384e-07
1.54971e-07
6.49124e-07
1.7752e-07
6.57864e-07
8.99811e-08
5.51239e-07
3.96691e-07
6.39605e-07
-9.20356e-08
6.02941e-07
4.21121e-07
4.15234e-07
-2.05335e-07
1.83923e-07
2.98869e-07
2.30497e-07
-4.27537e-07
-2.28173e-06
-8.26932e-07
3.76471e-07
-9.81848e-07
2.30962e-07
-9.45344e-07
2.69924e-07
-8.20888e-07
1.6504e-07
-7.37705e-07
1.80034e-07
-6.59427e-07
1.44505e-07
-6.03348e-07
1.62561e-07
-5.57796e-07
1.27408e-07
-5.03615e-07
1.33481e-07
-4.47269e-07
1.24367e-07
-3.83188e-07
9.08905e-08
-3.16432e-07
1.10764e-07
-2.97419e-07
7.09676e-08
-7.60161e-08
1.75288e-07
-2.69908e-07
1.01856e-07
2.65201e-08
1.24693e-07
-1.03785e-07
-7.50298e-08
1.8808e-07
7.00467e-09
7.37848e-07
-9.77306e-07
-1.54388e-06
3.76471e-07
6.07432e-07
8.77357e-07
1.0424e-06
1.22243e-06
1.36694e-06
1.5295e-06
1.6569e-06
1.79039e-06
1.91475e-06
2.00564e-06
2.11641e-06
2.18737e-06
2.36266e-06
2.46452e-06
2.58921e-06
2.51418e-06
2.52119e-06
1.54388e-06
)
;

boundaryField
{
    movingWall
    {
        type            calculated;
        value           uniform 0;
    }
    fixedWalls
    {
        type            calculated;
        value           uniform 0;
    }
    frontAndBack
    {
        type            empty;
        value           nonuniform 0();
    }
}


// ************************************************************************* //
