/*--------------------------------*- C++ -*----------------------------------*\
| =========                 |                                                 |
| \\      /  F ield         | OpenFOAM: The Open Source CFD Toolbox           |
|  \\    /   O peration     | Version:  5.x                                   |
|   \\  /    A nd           | Web:      www.OpenFOAM.org                      |
|    \\/     M anipulation  |                                                 |
\*---------------------------------------------------------------------------*/
FoamFile
{
    version     2.0;
    format      ascii;
    class       volVectorField;
    location    "7";
    object      U;
}
// * * * * * * * * * * * * * * * * * * * * * * * * * * * * * * * * * * * * * //

dimensions      [0 1 -1 0 0 0 0];

internalField   nonuniform List<vector> 
400
(
(-0.00416014 0.00564223 0)
(-0.0139399 0.00759712 0)
(-0.0281798 0.00576408 0)
(-0.0419561 -0.00282701 0)
(-0.0463184 -0.00220795 0)
(-0.0515356 0.0108207 0)
(-0.0623828 0.0100839 0)
(-0.0619769 -0.00131714 0)
(-0.0584384 0.00269657 0)
(-0.0641054 0.00458423 0)
(-0.0602386 -0.00688707 0)
(-0.0488151 -0.00765937 0)
(-0.0460185 0.0006411 0)
(-0.046893 0.00114278 0)
(-0.045489 -0.0028981 0)
(-0.0430881 -0.00363602 0)
(-0.0423741 -0.00264713 0)
(-0.0394794 -0.0050119 0)
(-0.0356318 -0.00927493 0)
(-0.00845263 -0.0180334 0)
(-0.00160809 0.0119465 0)
(-0.00446861 0.0149136 0)
(-0.00769776 0.0185838 0)
(-0.014804 0.018638 0)
(-0.0270157 0.0131308 0)
(-0.0384214 0.00520828 0)
(-0.0418797 0.000612017 0)
(-0.0424014 -0.00107511 0)
(-0.0435908 -0.00169029 0)
(-0.0404391 -0.00415741 0)
(-0.0349025 -0.00735642 0)
(-0.0322573 -0.00705265 0)
(-0.0296168 -0.00446715 0)
(-0.0240034 -0.0027621 0)
(-0.0213177 -0.000917571 0)
(-0.0193363 -0.000683152 0)
(-0.0220763 -0.000636677 0)
(-0.0190782 -0.0062241 0)
(-0.0233347 -0.0150107 0)
(-0.003928 -0.0363007 0)
(-0.00044339 0.0133523 0)
(-0.000949946 0.0152759 0)
(-0.000369883 0.0179749 0)
(0.000351901 0.0198335 0)
(3.73954e-05 0.0200984 0)
(-0.0016228 0.0181907 0)
(-0.00437523 0.013037 0)
(-0.0072323 0.00568928 0)
(-0.00903967 -0.000185268 0)
(-0.00905094 -0.00506874 0)
(-0.00887535 -0.00941526 0)
(-0.0085937 -0.0110365 0)
(-0.00914575 -0.00952389 0)
(-0.0067138 -0.00826286 0)
(-0.00747354 -0.0052478 0)
(-0.00374876 -0.00398621 0)
(-0.00636732 -0.000703965 0)
(-0.00125669 -0.00423968 0)
(-0.00869826 -0.0136431 0)
(-0.00117963 -0.0436738 0)
(0.000158282 0.0134614 0)
(0.000701643 0.014639 0)
(0.00212912 0.0161649 0)
(0.00457448 0.0174158 0)
(0.00729224 0.0174824 0)
(0.00938443 0.0151016 0)
(0.0102497 0.0102956 0)
(0.010136 0.00460615 0)
(0.00930284 -0.000486518 0)
(0.00836028 -0.00476604 0)
(0.00606235 -0.00769643 0)
(0.00441394 -0.00848167 0)
(0.000962381 -0.00722503 0)
(0.00109098 -0.00590676 0)
(-0.00194341 -0.00335641 0)
(-0.000162646 -0.00368638 0)
(-0.00311762 -0.002254 0)
(0.00135519 -0.00602447 0)
(-0.00467178 -0.0136566 0)
(0.000585685 -0.0468384 0)
(0.000474162 0.0127248 0)
(0.00152895 0.0134849 0)
(0.00309393 0.0141949 0)
(0.00535336 0.014664 0)
(0.00806062 0.0143177 0)
(0.0107358 0.0126333 0)
(0.0126518 0.00958057 0)
(0.0135433 0.00559387 0)
(0.0129113 0.0016131 0)
(0.0115291 -0.00203472 0)
(0.00859046 -0.00435636 0)
(0.00630444 -0.00559729 0)
(0.00245146 -0.00499109 0)
(0.00246197 -0.00479441 0)
(-0.00086959 -0.0029106 0)
(0.00189322 -0.0032301 0)
(-0.00176529 -0.00157026 0)
(0.00188513 -0.00359176 0)
(-0.00246116 -0.0109935 0)
(0.00101996 -0.0480768 0)
(0.000608476 0.0115743 0)
(0.00185614 0.0121063 0)
(0.00334344 0.0123466 0)
(0.00519429 0.0123591 0)
(0.00728323 0.0117946 0)
(0.00939985 0.0104296 0)
(0.0109834 0.0081641 0)
(0.0118105 0.00518997 0)
(0.0113114 0.00213589 0)
(0.0103658 -0.000677311 0)
(0.00808266 -0.00241648 0)
(0.00677708 -0.00375355 0)
(0.00336801 -0.00324897 0)
(0.00394748 -0.00368938 0)
(2.23416e-05 -0.00211991 0)
(0.00265487 -0.00304245 0)
(-0.00186612 -0.00164346 0)
(0.00218368 -0.00570748 0)
(-0.00278268 -0.0132763 0)
(0.00262608 -0.0507052 0)
(0.000652516 0.0102933 0)
(0.0019411 0.0107422 0)
(0.00332544 0.0107541 0)
(0.00482979 0.010501 0)
(0.00638208 0.00989253 0)
(0.00788993 0.00868971 0)
(0.00899235 0.00700825 0)
(0.00967836 0.00483684 0)
(0.0094519 0.00279982 0)
(0.00888509 0.000687963 0)
(0.00715271 -0.000338865 0)
(0.00640923 -0.0020584 0)
(0.00342372 -0.00132844 0)
(0.00440195 -0.00274974 0)
(0.00032642 -0.00101655 0)
(0.00349861 -0.00255314 0)
(-0.00191601 -0.000986569 0)
(0.00279293 -0.00351493 0)
(-0.00374273 -0.0108767 0)
(0.00369908 -0.0482944 0)
(0.000664064 0.0089468 0)
(0.0019149 0.00936813 0)
(0.00309667 0.00937406 0)
(0.00432878 0.00922768 0)
(0.00549522 0.00869833 0)
(0.00659219 0.00785224 0)
(0.00734827 0.00658346 0)
(0.00786089 0.00497732 0)
(0.00758479 0.00347297 0)
(0.00738281 0.00168096 0)
(0.00564186 0.000933744 0)
(0.00579864 -0.000537112 0)
(0.00263662 -9.70158e-06 0)
(0.00443384 -0.00125132 0)
(-0.000240446 0.000135914 0)
(0.00359182 -0.00118593 0)
(-0.00253858 6.90324e-05 0)
(0.00270508 -0.00372336 0)
(-0.004532 -0.0131232 0)
(0.00352 -0.0501061 0)
(0.000676057 0.00768047 0)
(0.00194142 0.00834662 0)
(0.00314124 0.00831841 0)
(0.00414307 0.00797448 0)
(0.00499248 0.00750342 0)
(0.00575016 0.00657616 0)
(0.00615073 0.00567446 0)
(0.0065473 0.00435272 0)
(0.00627028 0.00339826 0)
(0.0063352 0.00181291 0)
(0.0050725 0.00159614 0)
(0.00549874 -0.000253982 0)
(0.00275918 0.000818057 0)
(0.00478472 -0.00149253 0)
(0.000180649 0.000632847 0)
(0.00426404 -0.00173477 0)
(-0.00260641 0.000198505 0)
(0.00321426 -0.00288802 0)
(-0.00521141 -0.0119733 0)
(0.00405098 -0.0515755 0)
(0.000842702 0.00618192 0)
(0.00205673 0.00670031 0)
(0.00272232 0.00708991 0)
(0.00350782 0.00739511 0)
(0.00412188 0.00722261 0)
(0.00477837 0.00695379 0)
(0.00514016 0.00621114 0)
(0.00554184 0.00523235 0)
(0.00508562 0.0044159 0)
(0.00544755 0.00303944 0)
(0.00363529 0.00280022 0)
(0.00490042 0.0012838 0)
(0.00128021 0.00196732 0)
(0.00452305 0.000732578 0)
(-0.00122389 0.00200677 0)
(0.00445449 0.00116208 0)
(-0.00298097 0.00194522 0)
(0.00405043 -0.000898499 0)
(-0.00501656 -0.0125234 0)
(0.00509122 -0.050785 0)
(0.000939986 0.00480612 0)
(0.00243345 0.00680955 0)
(0.00375513 0.00698376 0)
(0.00425972 0.00658679 0)
(0.00447627 0.00610266 0)
(0.00464156 0.00506957 0)
(0.00441548 0.0046644 0)
(0.00468077 0.00371208 0)
(0.00412301 0.0033783 0)
(0.00471725 0.00216886 0)
(0.00330417 0.00228017 0)
(0.00478541 0.000790511 0)
(0.0019043 0.00161153 0)
(0.00505144 -0.000308016 0)
(0.000108755 0.00116717 0)
(0.00502815 -0.00112041 0)
(-0.00274875 0.000957097 0)
(0.00477438 -0.00214279 0)
(-0.00566383 -0.0135465 0)
(0.00510934 -0.0523435 0)
(0.00207504 0.0024815 0)
(0.00337704 0.00348372 0)
(0.00238578 0.00499293 0)
(0.00284737 0.00645145 0)
(0.00309535 0.00704427 0)
(0.00373411 0.00752533 0)
(0.00394595 0.00679399 0)
(0.00432601 0.00606488 0)
(0.00358774 0.00522791 0)
(0.0042818 0.00420999 0)
(0.00232427 0.00385527 0)
(0.00400909 0.00270376 0)
(0.00032501 0.00311208 0)
(0.00382419 0.00208143 0)
(-0.00232039 0.0036362 0)
(0.00470053 0.00350877 0)
(-0.00452514 0.00347049 0)
(0.0062004 0.00185053 0)
(-0.00485375 -0.010617 0)
(0.00512748 -0.0503666 0)
(0.00416916 -0.000668455 0)
(0.0046493 0.00780223 0)
(0.00597461 0.00757548 0)
(0.00491263 0.00652754 0)
(0.00378073 0.00499236 0)
(0.00307701 0.00335576 0)
(0.00234041 0.00366494 0)
(0.00264175 0.00299184 0)
(0.0021493 0.00310484 0)
(0.00311356 0.00217377 0)
(0.001684 0.00240655 0)
(0.00393276 0.00135707 0)
(0.000437779 0.00174115 0)
(0.00567155 0.000967449 0)
(-0.000954584 0.00013165 0)
(0.00693227 -0.000268251 0)
(-0.00278123 -0.000521271 0)
(0.00732503 -0.00293864 0)
(-0.00671979 -0.0144457 0)
(0.00623212 -0.0522052 0)
(0.00652203 -0.00696403 0)
(0.00712981 0.00138815 0)
(0.0033106 0.00433987 0)
(0.00589586 0.00787469 0)
(0.00616641 0.00914015 0)
(0.00584989 0.00990965 0)
(0.00496938 0.00787873 0)
(0.00485697 0.00719887 0)
(0.00332996 0.00557963 0)
(0.00436614 0.00539326 0)
(0.00178841 0.00409058 0)
(0.00398363 0.0044578 0)
(-2.42125e-06 0.00271559 0)
(0.00264772 0.00366153 0)
(-0.00193669 0.00420719 0)
(0.000856044 0.00541546 0)
(-0.00751943 0.0048167 0)
(0.00807273 0.00529469 0)
(-0.00540798 -0.00581729 0)
(0.00768664 -0.0518369 0)
(-0.00316799 -0.015028 0)
(0.00893684 0.0126217 0)
(-0.000464714 0.00742851 0)
(-0.00193774 0.00513787 0)
(-0.00458496 0.00414821 0)
(-0.00277935 0.00347614 0)
(-0.00274253 0.00418186 0)
(-0.00158969 0.00324769 0)
(-0.000903562 0.00324958 0)
(-0.000480056 0.00231108 0)
(-5.3472e-05 0.00249379 0)
(3.18326e-05 0.00162873 0)
(-0.000550637 0.00273609 0)
(0.00193415 0.00158842 0)
(-0.00419346 0.000974508 0)
(0.00879422 0.00303973 0)
(-0.00340846 -0.00779598 0)
(0.00618603 -0.0061551 0)
(-0.00847776 -0.016342 0)
(0.00658097 -0.0506087 0)
(-0.00435446 -0.0164137 0)
(0.00217822 0.00107023 0)
(0.00412986 0.0133908 0)
(0.00549761 0.0111462 0)
(0.00905183 0.0102693 0)
(0.00711799 0.00913291 0)
(0.00837929 0.00684915 0)
(0.00930264 0.00664673 0)
(0.00713858 0.00481733 0)
(0.00993844 0.00574626 0)
(0.00449803 0.00418357 0)
(0.0103043 0.00623241 0)
(0.00103711 0.00125157 0)
(0.0113489 0.00840627 0)
(-0.00195451 -0.00123276 0)
(0.00617796 0.00548964 0)
(-0.00562626 0.00945922 0)
(0.0081417 0.00974671 0)
(-0.00622263 -0.00216248 0)
(0.00884302 -0.0544161 0)
(0.00166746 -0.00787332 0)
(-0.011906 0.00589017 0)
(-0.00687569 0.00356033 0)
(-0.00419892 0.0029731 0)
(-0.00944117 0.00316158 0)
(-0.00221641 0.00314229 0)
(-0.00940345 0.0026826 0)
(-0.00330162 0.00310674 0)
(-0.00793968 0.00301009 0)
(-0.00520229 0.00312647 0)
(-0.00624536 0.00220643 0)
(-0.00632395 0.00310876 0)
(-0.00325178 0.00118661 0)
(-0.00902108 0.00383853 0)
(2.46552e-05 0.00529509 0)
(-0.00571924 0.00464411 0)
(-0.00476953 -0.010599 0)
(0.0111362 -0.00641621 0)
(-0.00597833 -0.0200328 0)
(0.0081097 -0.0491333 0)
(-0.00827896 -0.0115653 0)
(0.0082127 0.00898437 0)
(0.00708205 0.00573245 0)
(0.00365116 0.010607 0)
(0.00853053 0.00908729 0)
(0.00733721 0.00803791 0)
(0.00920316 0.00750553 0)
(0.0104428 0.00640269 0)
(0.0101666 0.00617104 0)
(0.0133531 0.00565389 0)
(0.0104161 0.00553322 0)
(0.0150003 0.00520664 0)
(0.0107933 0.00314248 0)
(0.0154777 0.00849101 0)
(0.00756194 -0.00539932 0)
(0.0162592 0.0104045 0)
(0.00910184 -0.00375905 0)
(0.00852056 0.00982277 0)
(-0.00216349 0.00683596 0)
(0.0126918 -0.0488953 0)
(-0.0214852 -0.00488641 0)
(-0.0137351 -0.00530875 0)
(-0.0243196 0.00564596 0)
(-0.0125014 0.000480315 0)
(-0.0197906 0.0017534 0)
(-0.00993977 0.000665139 0)
(-0.0167865 0.00156362 0)
(-0.00700763 0.000331859 0)
(-0.0159128 0.0010982 0)
(-0.00351834 0.00130018 0)
(-0.0152648 0.000137318 0)
(0.00106818 0.00186131 0)
(-0.0149785 -0.000148612 0)
(0.00431681 0.00700219 0)
(-0.00770282 0.00136898 0)
(-0.00425815 0.00573331 0)
(0.00583094 -0.00434295 0)
(-0.0110596 -0.000130189 0)
(0.018217 -0.0268396 0)
(0.0146706 -0.0499419 0)
(0.00208955 0.0182761 0)
(0.0135422 0.0141473 0)
(0.0119533 0.00623074 0)
(0.0211313 0.0063858 0)
(0.022341 0.005625 0)
(0.0256975 0.00530101 0)
(0.0290622 0.00489351 0)
(0.0316106 0.00480131 0)
(0.0350466 0.00452854 0)
(0.0363794 0.00388099 0)
(0.0397368 0.00390534 0)
(0.0410048 0.00266978 0)
(0.0436511 0.00357059 0)
(0.0451197 0.000351532 0)
(0.0476743 0.0031276 0)
(0.0497613 -4.59118e-05 0)
(0.0510614 0.00102595 0)
(0.0505282 0.000885988 0)
(0.0443465 -0.00711931 0)
(0.0255101 -0.00268656 0)
)
;

boundaryField
{
    movingWall
    {
        type            fixedValue;
        value           uniform (1 0 0);
    }
    fixedWalls
    {
        type            noSlip;
    }
    frontAndBack
    {
        type            empty;
    }
}


// ************************************************************************* //
