/*--------------------------------*- C++ -*----------------------------------*\
| =========                 |                                                 |
| \\      /  F ield         | OpenFOAM: The Open Source CFD Toolbox           |
|  \\    /   O peration     | Version:  5.x                                   |
|   \\  /    A nd           | Web:      www.OpenFOAM.org                      |
|    \\/     M anipulation  |                                                 |
\*---------------------------------------------------------------------------*/
FoamFile
{
    version     2.0;
    format      ascii;
    class       volScalarField;
    location    "19";
    object      p;
}
// * * * * * * * * * * * * * * * * * * * * * * * * * * * * * * * * * * * * * //

dimensions      [0 2 -2 0 0 0 0];

internalField   nonuniform List<scalar> 
400
(
-3.49089e-10
-0.000744455
-0.00130829
-0.00167197
-0.00185681
-0.0019615
-0.00201575
-0.00205379
-0.00207119
-0.00207774
-0.00208704
-0.00209351
-0.00209203
-0.00207141
-0.00200401
-0.00188636
-0.00169034
-0.00135995
-0.000806333
0.000428001
-0.000786732
-0.00131336
-0.00165634
-0.00185272
-0.0019488
-0.00200601
-0.0020395
-0.00206716
-0.00207487
-0.00208139
-0.00207181
-0.00208657
-0.00209777
-0.00210883
-0.00209912
-0.00204629
-0.00196944
-0.00180228
-0.00160117
-0.000625009
-0.00134044
-0.00169965
-0.00185988
-0.0019581
-0.00199897
-0.00202499
-0.00204881
-0.00206777
-0.00207911
-0.00208417
-0.00208522
-0.00209404
-0.00210888
-0.00209617
-0.00208748
-0.00198027
-0.00200026
-0.00181696
-0.00175229
-0.00132652
-0.0016819
-0.00190413
-0.00196612
-0.0020114
-0.00202405
-0.00204196
-0.0020558
-0.00207526
-0.00208061
-0.00207971
-0.00208113
-0.00209093
-0.00210514
-0.00209322
-0.00213131
-0.00210116
-0.00211275
-0.00193432
-0.00197216
-0.00172851
-0.00186792
-0.00200588
-0.00201456
-0.00203308
-0.00204268
-0.00204957
-0.00206171
-0.0020722
-0.0020814
-0.00208221
-0.0020845
-0.00208244
-0.00211434
-0.00210179
-0.00214285
-0.00212549
-0.00211441
-0.00196985
-0.00198187
-0.00188049
-0.00196663
-0.00202169
-0.00202459
-0.00204108
-0.0020438
-0.00205542
-0.00206131
-0.00207411
-0.00208162
-0.0020828
-0.00209517
-0.00209369
-0.00210173
-0.00206835
-0.00209491
-0.00209003
-0.00209446
-0.00198124
-0.00208346
-0.00195908
-0.00200829
-0.0020491
-0.0020468
-0.0020541
-0.00205875
-0.00206199
-0.00207153
-0.00207583
-0.00208933
-0.00208461
-0.00211144
-0.00208293
-0.0021245
-0.00202975
-0.00207009
-0.0020828
-0.00206433
-0.00200036
-0.00206012
-0.00199118
-0.00204643
-0.00206954
-0.00206051
-0.00206338
-0.0020602
-0.00206259
-0.00206373
-0.00207712
-0.00208729
-0.00210183
-0.00211176
-0.00209627
-0.00208612
-0.00210494
-0.00210996
-0.00209549
-0.00207542
-0.00206218
-0.00209132
-0.00209109
-0.00206522
-0.00208373
-0.00207219
-0.00207471
-0.00207311
-0.00206792
-0.00207455
-0.00207702
-0.0020986
-0.00212874
-0.0021241
-0.00211242
-0.00213366
-0.0021714
-0.00220551
-0.00212716
-0.00230709
-0.0021372
-0.00214534
-0.0021265
-0.00208272
-0.00210266
-0.00208732
-0.00208723
-0.00207331
-0.00206793
-0.00206909
-0.00207845
-0.00208662
-0.00209529
-0.00208458
-0.00211666
-0.00208709
-0.00212074
-0.00219996
-0.00212424
-0.00218634
-0.00213574
-0.00216606
-0.00209692
-0.00209062
-0.00210741
-0.00209427
-0.00209865
-0.00208715
-0.00207338
-0.0020731
-0.00207797
-0.00209093
-0.00211701
-0.0021182
-0.00215784
-0.00215298
-0.00222661
-0.00216902
-0.00210246
-0.00207055
-0.00210307
-0.00212534
-0.00203411
-0.00208728
-0.00209988
-0.00207333
-0.0020907
-0.00207937
-0.0020598
-0.00207902
-0.00209031
-0.00205486
-0.00208797
-0.00211741
-0.00214532
-0.00215089
-0.00221793
-0.00213331
-0.00212607
-0.00208648
-0.00208226
-0.00209992
-0.00207259
-0.00208833
-0.00211708
-0.00208291
-0.0021171
-0.00209327
-0.00208372
-0.00210303
-0.00206727
-0.002068
-0.00209888
-0.00211624
-0.0021575
-0.00214466
-0.00216973
-0.00222058
-0.0020968
-0.00218636
-0.00204558
-0.00213934
-0.00200747
-0.00207392
-0.00211115
-0.00210263
-0.00211345
-0.00207298
-0.00211304
-0.00207193
-0.00201964
-0.00201521
-0.00206397
-0.00211527
-0.00212775
-0.00213988
-0.00218506
-0.0023434
-0.00205923
-0.00212525
-0.00195766
-0.00207994
-0.00185636
-0.0020446
-0.00211132
-0.00212195
-0.00216282
-0.00210335
-0.00212907
-0.00211521
-0.00204361
-0.00205814
-0.00208404
-0.00210947
-0.00215406
-0.00214237
-0.00223869
-0.00236472
-0.00212881
-0.00214745
-0.00181969
-0.00205504
-0.0018268
-0.0019633
-0.00207791
-0.00216058
-0.00209861
-0.00208885
-0.00209036
-0.00210406
-0.00202238
-0.00210318
-0.00209116
-0.00212703
-0.00211913
-0.00209799
-0.00208992
-0.00198035
-0.00184802
-0.00212357
-0.00185734
-0.00181737
-0.00185865
-0.00178292
-0.00194754
-0.0020831
-0.00212086
-0.00206144
-0.00208804
-0.00204143
-0.00202421
-0.00213364
-0.00215904
-0.00216689
-0.00213328
-0.00208876
-0.00206337
-0.00202947
-0.00201555
-0.002055
-0.00208115
-0.00211094
-0.00178637
-0.00144832
-0.00177955
-0.00198258
-0.00204747
-0.00204285
-0.00201403
-0.00201443
-0.0020832
-0.00217227
-0.00228388
-0.00231849
-0.00207494
-0.00203802
-0.00204887
-0.00198759
-0.00203916
-0.00187816
-0.00173668
-0.00153454
-0.00131865
-0.000952553
-0.00137781
-0.00174249
-0.00188341
-0.0018786
-0.00182643
-0.00179497
-0.00197044
-0.00243119
-0.00257891
-0.00243491
-0.00204974
-0.00204995
-0.00193828
-0.00195259
-0.00202421
-0.00187571
-0.00196857
-0.0017639
-0.000953039
-0.000402095
-0.000980398
-0.0014633
-0.00179265
-0.00193102
-0.00195293
-0.00194974
-0.0019935
-0.00209174
-0.00214275
-0.00209733
-0.00205335
-0.00202643
-0.00195114
-0.00193854
-0.00186832
-0.00186273
-0.00144244
-0.000639745
0.0012739
)
;

boundaryField
{
    movingWall
    {
        type            zeroGradient;
    }
    fixedWalls
    {
        type            zeroGradient;
    }
    frontAndBack
    {
        type            empty;
    }
}


// ************************************************************************* //
