/*--------------------------------*- C++ -*----------------------------------*\
| =========                 |                                                 |
| \\      /  F ield         | OpenFOAM: The Open Source CFD Toolbox           |
|  \\    /   O peration     | Version:  5.x                                   |
|   \\  /    A nd           | Web:      www.OpenFOAM.org                      |
|    \\/     M anipulation  |                                                 |
\*---------------------------------------------------------------------------*/
FoamFile
{
    version     2.0;
    format      ascii;
    class       surfaceScalarField;
    location    "19";
    object      phi;
}
// * * * * * * * * * * * * * * * * * * * * * * * * * * * * * * * * * * * * * //

dimensions      [0 3 -1 0 0 0 0];

internalField   nonuniform List<scalar> 
760
(
-1.32226e-06
1.32226e-06
-2.21035e-06
8.88099e-07
-2.65214e-06
4.41784e-07
-2.88769e-06
2.35555e-07
-2.98173e-06
9.40395e-08
-3.04994e-06
6.82051e-08
-3.07464e-06
2.46993e-08
-3.11213e-06
3.74934e-08
-3.13358e-06
2.14499e-08
-3.16311e-06
2.95248e-08
-3.16182e-06
-1.28317e-09
-3.17151e-06
9.68781e-09
-3.15341e-06
-1.80999e-08
-3.13872e-06
-1.46857e-08
-3.08038e-06
-5.83476e-08
-2.96929e-06
-1.11088e-07
-2.78032e-06
-1.88967e-07
-2.36584e-06
-4.14477e-07
-1.66262e-06
-7.03226e-07
-1.66262e-06
-7.64343e-07
2.0866e-06
-1.22877e-06
1.35253e-06
-1.36976e-06
5.82773e-07
-1.42769e-06
2.93484e-07
-1.45403e-06
1.20379e-07
-1.46983e-06
8.39998e-08
-1.47967e-06
3.45412e-08
-1.49718e-06
5.50044e-08
-1.48094e-06
5.20887e-09
-1.49115e-06
3.974e-08
-1.50497e-06
1.25318e-08
-1.54812e-06
5.28381e-08
-1.57326e-06
7.04606e-09
-1.56846e-06
-1.94933e-08
-1.58008e-06
-4.67275e-08
-1.4969e-06
-1.94268e-07
-1.48104e-06
-2.04824e-07
-1.40571e-06
-4.89802e-07
-9.71943e-07
-1.137e-06
-2.63456e-06
-4.20225e-07
2.50682e-06
-6.04968e-07
1.53727e-06
-6.11894e-07
5.897e-07
-6.37018e-07
3.18607e-07
-6.64285e-07
1.47646e-07
-7.05596e-07
1.25311e-07
-7.73339e-07
1.02285e-07
-7.90009e-07
7.16744e-08
-8.0385e-07
1.90499e-08
-7.63315e-07
-7.95458e-10
-7.68847e-07
1.80637e-08
-7.82452e-07
6.64432e-08
-8.26978e-07
5.15717e-08
-7.84278e-07
-6.21927e-08
-7.11428e-07
-1.19578e-07
-6.34247e-07
-2.71448e-07
-3.72001e-07
-4.6707e-07
-2.61277e-07
-6.00526e-07
-3.89848e-07
-1.00843e-06
-3.02441e-06
-2.18647e-07
2.72547e-06
-2.879e-07
1.60653e-06
-2.6555e-07
5.67349e-07
-2.60446e-07
3.13504e-07
-2.6953e-07
1.5673e-07
-2.85092e-07
1.40873e-07
-3.21071e-07
1.38263e-07
-3.46884e-07
9.74873e-08
-3.8004e-07
5.22059e-08
-4.0636e-07
2.55251e-08
-4.50281e-07
6.19843e-08
-4.73452e-07
8.96143e-08
-4.82724e-07
6.08438e-08
-5.37238e-07
-7.67825e-09
-6.31987e-07
-2.48291e-08
-6.43781e-07
-2.59654e-07
-5.40318e-07
-5.70534e-07
-2.27602e-07
-9.13241e-07
-1.94518e-07
-1.04151e-06
-3.21893e-06
-1.13523e-07
2.83899e-06
-1.12419e-07
1.60542e-06
-9.3722e-08
5.48653e-07
-5.6212e-08
2.75994e-07
-5.83129e-08
1.58831e-07
-8.0012e-08
1.62572e-07
-1.01137e-07
1.59387e-07
-1.31687e-07
1.28038e-07
-1.96656e-07
1.17175e-07
-2.30309e-07
5.91776e-08
-2.04989e-07
3.66644e-08
-1.14184e-07
-1.19009e-09
7.44908e-09
-6.07897e-08
-3.48016e-08
3.45724e-08
2.67216e-08
-8.63523e-08
-3.63357e-08
-1.96597e-07
-6.45614e-08
-5.42308e-07
1.69895e-09
-9.79502e-07
-2.29981e-08
-1.01682e-06
-3.24192e-06
-5.44091e-08
2.8934e-06
-8.09965e-08
1.63201e-06
-2.86959e-08
4.96352e-07
1.7405e-08
2.29893e-07
-3.72232e-08
2.13459e-07
-3.58055e-08
1.61155e-07
-4.91404e-08
1.72722e-07
-7.64378e-08
1.55335e-07
-7.76862e-08
1.18423e-07
-1.33372e-07
1.14863e-07
-2.78905e-07
1.82197e-07
-2.78015e-07
-2.0793e-09
-5.45987e-08
-2.84206e-07
-5.02022e-08
3.0176e-08
1.71947e-07
-3.08502e-07
2.75828e-07
-3.00477e-07
3.4717e-08
-3.01198e-07
1.32928e-09
-9.46114e-07
-7.49859e-08
-9.405e-07
-3.31691e-06
-5.23263e-08
2.94573e-06
-3.36955e-08
1.61338e-06
-5.70218e-08
5.19678e-07
-4.74588e-08
2.2033e-07
-1.70834e-08
1.83084e-07
9.76021e-09
1.34311e-07
3.79996e-08
1.44483e-07
1.54018e-08
1.77933e-07
-2.75849e-08
1.6141e-07
-4.28574e-08
1.30136e-07
-4.25243e-08
1.81864e-07
-6.03535e-08
1.57499e-08
-5.92661e-08
-2.85294e-07
-1.17558e-07
8.84681e-08
6.92723e-08
-4.95332e-07
9.33795e-08
-3.24585e-07
-3.7767e-08
-1.70051e-07
4.29954e-08
-1.02688e-06
4.25315e-08
-9.40036e-07
-3.27438e-06
-5.64507e-09
2.95137e-06
-4.98235e-08
1.65756e-06
-3.5835e-08
5.0569e-07
1.09064e-08
1.73588e-07
2.19475e-09
1.91795e-07
-2.42865e-08
1.60792e-07
-1.0512e-07
2.25317e-07
-1.82705e-07
2.55517e-07
-2.6674e-07
2.45446e-07
-2.98328e-07
1.61724e-07
-1.44106e-07
2.7642e-08
-3.56686e-08
-9.26879e-08
-1.95529e-07
-1.25434e-07
-4.50993e-07
3.43932e-07
-1.97496e-07
-7.48828e-07
-1.37626e-07
-3.84455e-07
-3.19882e-07
1.22057e-08
-2.51118e-07
-1.09564e-06
-8.05444e-08
-1.11061e-06
-3.35492e-06
-2.4031e-08
2.9754e-06
-2.40401e-08
1.65756e-06
-4.09286e-08
5.22578e-07
-6.62506e-08
1.9891e-07
-3.15978e-08
1.57143e-07
4.69234e-08
8.2271e-08
6.09137e-08
2.11327e-07
8.85133e-08
2.27918e-07
3.11712e-07
2.22468e-08
3.43144e-07
1.30292e-07
1.81096e-07
1.89691e-07
-1.1881e-08
1.00289e-07
-1.5175e-07
1.4435e-08
-1.93e-07
3.85183e-07
-7.32468e-08
-8.68582e-07
-7.43597e-09
-4.50266e-07
-1.65315e-07
1.70085e-07
-1.1217e-07
-1.14879e-06
4.99284e-09
-1.22777e-06
-3.34993e-06
2.19178e-08
2.95349e-06
-4.74519e-08
1.72693e-06
-7.82531e-08
5.53379e-07
-3.82203e-08
1.58878e-07
2.45559e-08
9.43663e-08
6.4759e-08
4.20679e-08
1.56674e-07
1.19412e-07
2.21219e-07
1.63373e-07
2.52923e-07
-9.45744e-09
1.09034e-07
2.74181e-07
-7.05706e-08
3.69295e-07
-8.11443e-08
1.10862e-07
-1.0452e-07
3.78104e-08
-1.75312e-07
4.55975e-07
-4.91624e-07
-5.52269e-07
-3.85621e-07
-5.5627e-07
1.64435e-07
-3.79971e-07
1.38419e-07
-1.12277e-06
-6.00722e-08
-1.02928e-06
-3.41e-06
-1.26669e-09
2.95475e-06
3.83813e-08
1.68729e-06
4.30062e-08
5.48754e-07
7.78284e-08
1.24056e-07
9.91396e-08
7.30551e-08
1.54325e-07
-1.31173e-08
3.01305e-07
-2.75683e-08
2.21206e-07
2.43471e-07
1.92679e-08
1.92481e-07
-6.81749e-08
3.61624e-07
-4.31971e-08
3.44317e-07
1.22256e-07
-5.45906e-08
2.37913e-07
-7.78468e-08
2.29216e-08
6.70967e-07
-9.49406e-08
-4.34407e-07
-1.38548e-07
-5.12663e-07
1.8396e-07
-7.02479e-07
2.6342e-07
-1.20223e-06
1.03062e-07
-8.68923e-07
-3.30694e-06
2.55498e-08
2.9292e-06
-4.85841e-08
1.76142e-06
7.0082e-08
4.30088e-07
1.39458e-07
5.46797e-08
3.85159e-08
1.73997e-07
5.39425e-08
-2.85439e-08
2.35522e-07
-2.09148e-07
2.73374e-07
2.05619e-07
1.30241e-07
3.35614e-07
5.85653e-08
4.333e-07
7.05501e-08
3.32332e-07
-1.34282e-08
2.93877e-08
-5.99964e-08
-3.12786e-08
6.08016e-08
5.50169e-07
3.14981e-08
-4.05104e-07
-4.08477e-08
-4.40317e-07
-5.00708e-08
-6.93256e-07
-2.58007e-07
-9.94294e-07
-3.37676e-08
-1.09316e-06
-3.34071e-06
5.1198e-09
2.92408e-06
3.17815e-08
1.73476e-06
-5.15932e-08
5.13463e-07
-1.80483e-07
1.83569e-07
-1.20854e-07
1.14368e-07
-1.37002e-07
-1.23956e-08
-1.09656e-07
-2.36494e-07
1.33131e-07
-3.71676e-08
3.0742e-07
1.61324e-07
2.92116e-07
4.48604e-07
1.55541e-07
4.68908e-07
4.78821e-08
1.37046e-07
-8.68179e-08
1.03421e-07
-6.04759e-09
4.69398e-07
6.9372e-08
-4.80523e-07
1.02106e-07
-4.73051e-07
3.9824e-08
-6.30974e-07
-1.66426e-07
-7.88044e-07
-6.32107e-09
-1.25327e-06
-3.34703e-06
1.72215e-08
2.90686e-06
-2.27259e-09
1.75425e-06
-1.77472e-08
5.28938e-07
-7.38552e-08
2.39677e-07
-3.62648e-08
7.67777e-08
-1.29177e-07
8.05168e-08
-1.00147e-07
-2.65523e-07
1.82659e-07
-3.19974e-07
2.67644e-07
7.63385e-08
3.79868e-07
3.36381e-07
3.46371e-07
5.02405e-07
1.69335e-07
3.14081e-07
6.5729e-09
2.66184e-07
-9.92058e-09
4.85892e-07
1.27645e-07
-6.18089e-07
2.10936e-07
-5.56342e-07
4.00853e-07
-8.20892e-07
3.28913e-07
-7.16103e-07
6.21119e-08
-9.86466e-07
-3.28492e-06
4.91443e-08
2.85772e-06
4.52757e-08
1.75812e-06
-7.15748e-08
6.45788e-07
1.15756e-07
5.23462e-08
2.15338e-07
-2.28043e-08
1.83514e-07
1.12341e-07
5.47643e-07
-6.29653e-07
5.71711e-07
-3.44041e-07
4.19127e-07
2.28922e-07
5.64919e-07
1.90588e-07
7.45466e-07
3.21859e-07
6.06173e-07
4.53374e-07
8.04704e-07
6.76535e-08
8.35483e-07
4.55113e-07
8.04878e-07
-5.87484e-07
9.12556e-07
-6.6402e-07
3.81087e-07
-2.89422e-07
1.37593e-07
-4.7261e-07
5.58935e-08
-9.04767e-07
-3.22902e-06
1.02262e-07
2.75546e-06
2.45133e-07
1.61525e-06
2.32413e-07
6.58508e-07
9.81685e-08
1.8659e-07
2.24947e-07
-1.49582e-07
5.26002e-07
-1.88714e-07
5.2111e-07
-6.24762e-07
4.88538e-07
-3.11469e-07
5.69094e-07
1.48366e-07
6.40155e-07
1.19527e-07
7.111e-07
2.50914e-07
7.44089e-07
4.20385e-07
8.21017e-07
-9.27434e-09
9.30146e-07
3.45983e-07
6.68252e-07
-3.25591e-07
-4.1957e-08
4.61895e-08
-2.65143e-07
-6.62366e-08
-6.69962e-08
-6.70756e-07
7.30273e-09
-9.79066e-07
-3.22172e-06
2.6298e-07
2.49248e-06
2.57123e-07
1.62111e-06
3.06656e-07
6.08975e-07
4.4641e-07
4.68365e-08
3.02137e-07
-5.31026e-09
4.74421e-07
-3.60997e-07
3.53844e-07
-5.04185e-07
5.4587e-07
-5.03495e-07
1.07767e-06
-3.83431e-07
1.17268e-06
2.45105e-08
1.00527e-06
4.18326e-07
9.70558e-07
4.55099e-07
8.58172e-07
1.03111e-07
8.90505e-07
3.13651e-07
7.75112e-07
-2.10197e-07
3.23494e-07
4.97807e-07
6.74672e-07
-4.17415e-07
2.93225e-07
-2.89309e-07
-2.87024e-08
-6.57139e-07
-3.25042e-06
4.44528e-07
2.04795e-06
8.46224e-07
1.21941e-06
8.14611e-07
6.40589e-07
8.37452e-07
2.39955e-08
8.85774e-07
-5.36323e-08
8.67854e-07
-3.43077e-07
9.32035e-07
-5.68367e-07
9.37528e-07
-5.08987e-07
9.16069e-07
-3.61972e-07
9.84398e-07
-4.38188e-08
1.10316e-06
2.99559e-07
1.05038e-06
5.07887e-07
1.16383e-06
-1.03449e-08
1.06862e-06
4.08861e-07
1.10239e-06
-2.43964e-07
1.0576e-06
5.42597e-07
8.94766e-07
-2.54581e-07
3.72285e-07
2.33172e-07
4.59462e-07
-7.44316e-07
-2.79096e-06
7.21031e-07
1.32692e-06
1.14262e-06
7.97818e-07
1.33712e-06
4.46092e-07
1.17099e-06
1.90123e-07
1.00304e-06
1.14326e-07
6.09806e-07
5.01535e-08
-5.23622e-08
9.38012e-08
-6.96039e-07
1.3469e-07
-1.1315e-06
7.34909e-08
-1.16329e-06
-1.20303e-08
-9.11027e-07
4.72969e-08
-4.84106e-07
8.0965e-08
-4.55758e-07
-3.86928e-08
-1.66695e-07
1.19798e-07
-3.4331e-07
-6.73484e-08
2.03143e-08
1.78972e-07
-4.88191e-08
-1.85447e-07
2.8597e-07
-1.01617e-07
8.3892e-07
-1.29727e-06
-1.95204e-06
1.32692e-06
2.12473e-06
2.57083e-06
2.76095e-06
2.87528e-06
2.92543e-06
3.01923e-06
3.15392e-06
3.22741e-06
3.21538e-06
3.26268e-06
3.34364e-06
3.30495e-06
3.42475e-06
3.3574e-06
3.53637e-06
3.35092e-06
3.24931e-06
1.95204e-06
)
;

boundaryField
{
    movingWall
    {
        type            calculated;
        value           uniform 0;
    }
    fixedWalls
    {
        type            calculated;
        value           uniform 0;
    }
    frontAndBack
    {
        type            empty;
        value           nonuniform 0();
    }
}


// ************************************************************************* //
