/*--------------------------------*- C++ -*----------------------------------*\
| =========                 |                                                 |
| \\      /  F ield         | OpenFOAM: The Open Source CFD Toolbox           |
|  \\    /   O peration     | Version:  5.x                                   |
|   \\  /    A nd           | Web:      www.OpenFOAM.org                      |
|    \\/     M anipulation  |                                                 |
\*---------------------------------------------------------------------------*/
FoamFile
{
    version     2.0;
    format      ascii;
    class       volVectorField;
    location    "19";
    object      U;
}
// * * * * * * * * * * * * * * * * * * * * * * * * * * * * * * * * * * * * * //

dimensions      [0 1 -1 0 0 0 0];

internalField   nonuniform List<vector> 
400
(
(-0.0174061 0.00924116 0)
(-0.040429 0.00710646 0)
(-0.0487255 0.00314376 0)
(-0.0561406 0.00143374 0)
(-0.0570123 0.000777044 0)
(-0.0608482 -0.000252636 0)
(-0.0598055 9.86646e-05 0)
(-0.062904 -0.0010661 0)
(-0.061316 -0.000371096 0)
(-0.0637505 -0.00128705 0)
(-0.062055 -0.000381423 0)
(-0.0647757 -0.000517058 0)
(-0.0623761 -4.26099e-05 0)
(-0.0652581 -8.57681e-05 0)
(-0.0611481 -0.000604499 0)
(-0.0633084 -0.00147893 0)
(-0.0569527 -0.00371552 0)
(-0.0565333 -0.00687083 0)
(-0.0426691 -0.0128189 0)
(-0.0158807 -0.0267394 0)
(-0.0121382 0.0384602 0)
(-0.0217385 0.0247627 0)
(-0.0263265 0.0124456 0)
(-0.0274082 0.00689314 0)
(-0.0283098 0.00248752 0)
(-0.0295966 0.00267666 0)
(-0.0283468 0.000754099 0)
(-0.0315707 0.00242471 0)
(-0.0276093 0.00118022 0)
(-0.0323777 0.00239078 0)
(-0.0262148 0.000361721 0)
(-0.0342555 0.000971265 0)
(-0.0274752 -0.000658041 0)
(-0.0361754 -0.000658787 0)
(-0.0275279 -0.00221191 0)
(-0.0352199 -0.00388485 0)
(-0.0258885 -0.00525613 0)
(-0.0332069 -0.0123933 0)
(-0.0275725 -0.0198095 0)
(-0.00547319 -0.0465862 0)
(-0.00729219 0.045922 0)
(-0.0116835 0.0300356 0)
(-0.0112259 0.0116106 0)
(-0.0129123 0.00523318 0)
(-0.0118548 0.00247274 0)
(-0.014304 0.000867108 0)
(-0.0137906 0.000681981 0)
(-0.0174373 -7.56662e-05 0)
(-0.014176 -0.000968835 0)
(-0.0180871 -0.000754513 0)
(-0.0120163 3.21557e-05 0)
(-0.0185651 0.000988874 0)
(-0.0134001 0.000880259 0)
(-0.0191507 2.18162e-05 0)
(-0.0134801 0.000724095 0)
(-0.0131997 -0.00262856 0)
(-0.0142023 -0.0017737 0)
(0.000869613 -0.00492637 0)
(-0.0129093 -0.0216466 0)
(-0.000210127 -0.0569722 0)
(-0.0052212 0.0563022 0)
(-0.00481869 0.0329625 0)
(-0.00578084 0.0126774 0)
(-0.00516205 0.00776865 0)
(-0.00480281 0.00367686 0)
(-0.00621411 0.004051 0)
(-0.00494263 0.00349794 0)
(-0.00825279 0.0027806 0)
(-0.00556124 0.00170285 0)
(-0.00945612 0.00073882 0)
(-0.00662532 0.000776567 0)
(-0.0112899 0.00164243 0)
(-0.00817141 0.00135994 0)
(-0.0102714 -0.00239863 0)
(-0.012361 -0.00594084 0)
(-0.0117302 -0.00945538 0)
(-0.015749 -0.0182172 0)
(-0.00376265 -0.0205541 0)
(-0.00685047 -0.0210269 0)
(0.000500872 -0.0625237 0)
(-0.00327448 0.0543684 0)
(-0.00204269 0.0322659 0)
(-0.00189636 0.010436 0)
(-0.0020275 0.00513562 0)
(-0.000147178 0.00240676 0)
(-0.00208955 0.00171755 0)
(-0.0011887 0.00191657 0)
(-0.00291241 0.00129187 0)
(-0.00249066 0.000441507 0)
(-0.00519353 0.000252794 0)
(-0.0041303 0.00177097 0)
(-0.00366523 0.00216601 0)
(-0.00132897 0.000858975 0)
(0.00174438 0.00201063 0)
(-0.00341998 0.0048353 0)
(0.00466623 -0.000611316 0)
(-0.00644772 -0.00368869 0)
(0.00448247 -0.0152809 0)
(-0.00454946 -0.018175 0)
(0.00394016 -0.0628985 0)
(-0.00230271 0.0607413 0)
(-0.000215424 0.0336731 0)
(-0.00269448 0.0122718 0)
(0.00141688 0.0061918 0)
(-0.000634836 0.00425987 0)
(-0.000962734 0.00486085 0)
(-0.000370388 0.00468737 0)
(-0.00170693 0.00371807 0)
(-0.00140105 0.00437653 0)
(-0.00154307 0.00208792 0)
(-0.00403687 -0.000365309 0)
(-0.00681127 -0.00224419 0)
(-0.00482097 -0.00303535 0)
(0.00296688 -0.000452011 0)
(-0.00527076 -0.00792301 0)
(0.0125564 -0.0066557 0)
(-0.00238299 -0.0177282 0)
(0.004254 -0.0231583 0)
(-0.00442178 -0.0245595 0)
(0.00215105 -0.0663448 0)
(-0.00237108 0.0564462 0)
(-1.69405e-05 0.0307827 0)
(-0.00113981 0.00706466 0)
(-0.00125976 0.00279111 0)
(-0.000613965 0.00393186 0)
(-1.55665e-05 0.00143811 0)
(0.000361504 0.00190666 0)
(0.00125965 0.00253414 0)
(-0.000729939 0.000157009 0)
(-0.000201342 0.00269349 0)
(-0.0017904 0.00745251 0)
(0.000420078 0.00219994 0)
(-0.00333217 -0.00904827 0)
(0.00151639 0.00193247 0)
(-0.00682606 -0.00396394 0)
(0.0096813 -0.00560148 0)
(-0.00617581 0.00611141 0)
(0.00498615 -0.0142196 0)
(-0.00376294 -0.0112288 0)
(0.00587956 -0.0633661 0)
(-0.00108444 0.0613495 0)
(0.000782637 0.0343271 0)
(-0.00256844 0.0140796 0)
(0.00102383 0.00621059 0)
(-0.000537281 0.0036989 0)
(0.000608302 0.00410435 0)
(-0.00149805 0.00420082 0)
(-0.00288926 0.00449015 0)
(-0.0042532 0.00658258 0)
(-0.00645862 0.00248299 0)
(-0.00585585 8.79885e-05 0)
(0.000410877 -0.00165849 0)
(-0.00172524 -0.00145577 0)
(-0.00650334 0.00112959 0)
(-0.0111646 -0.015787 0)
(0.00304507 -0.0071242 0)
(-0.00823428 -0.0120682 0)
(-0.0042393 -0.0264703 0)
(-0.00642365 -0.0269881 0)
(0.00344833 -0.0699574 0)
(-0.00161445 0.0576281 0)
(0.000503513 0.0317271 0)
(-0.00132078 0.00604362 0)
(-0.000436869 0.000610211 0)
(-0.00218593 0.00366239 0)
(0.00102178 0.00214864 0)
(0.000727677 0.00440896 0)
(0.00188583 0.00589673 0)
(0.00149131 0.00279671 0)
(0.0104631 0.00350989 0)
(0.003687 0.000830457 0)
(0.00394234 -0.00202622 0)
(-0.0044923 -0.00424333 0)
(-0.00169422 0.0118815 0)
(-0.00662088 -0.0156018 0)
(0.0044277 -0.00897542 0)
(-0.00502909 0.0122077 0)
(-0.000230193 -0.0187712 0)
(-0.00495408 -0.0184097 0)
(0.00522201 -0.0650686 0)
(-0.000300594 0.0607922 0)
(0.0010189 0.0347008 0)
(-0.00270806 0.0146549 0)
(-0.000623196 0.00743825 0)
(-0.000782439 0.00291227 0)
(0.00174559 0.00127328 0)
(0.000815132 0.00437605 0)
(0.00534065 0.00306612 0)
(0.00359922 -0.00177614 0)
(0.00618133 0.00225705 0)
(-0.00145888 0.00745105 0)
(-0.00176068 0.00632514 0)
(-0.00102407 0.00505831 0)
(-0.003435 0.00495518 0)
(-0.00440024 -0.0190686 0)
(-0.0135838 -0.0086023 0)
(-0.00326167 -0.00428777 0)
(0.01062 -0.0272597 0)
(-0.0057408 -0.0317964 0)
(0.0037934 -0.0700638 0)
(-0.000929677 0.0581484 0)
(0.000843451 0.0342384 0)
(0.000879632 0.00702699 0)
(0.000671394 -0.00131711 0)
(0.00258364 0.00060725 0)
(0.00156782 0.000267313 0)
(0.00443086 0.000283038 0)
(0.00780125 0.0037029 0)
(0.00118937 0.00129932 0)
(-0.000523382 0.00793941 0)
(-0.00189552 0.00643289 0)
(-0.000106927 -0.00232206 0)
(0.00554188 -0.00391114 0)
(0.00297617 0.0117139 0)
(-0.00182081 -0.00299616 0)
(-0.00167615 -0.0128134 0)
(-0.0039512 -0.00995376 0)
(0.010845 -0.0177218 0)
(-0.00103729 -0.00799023 0)
(0.00580199 -0.0631516 0)
(-0.000111779 0.0595213 0)
(0.000967673 0.0340332 0)
(-0.0026295 0.0157291 0)
(0.00511193 0.00663489 0)
(0.000704031 0.00256585 0)
(0.00102622 -0.000669636 0)
(0.000905289 -0.00129839 0)
(0.00807297 0.00553318 0)
(0.00366107 0.00699337 0)
(0.00111028 0.00732732 0)
(0.00131082 0.00778448 0)
(0.0013464 0.000439727 0)
(-0.0017202 0.00111499 0)
(-0.00120007 0.0162018 0)
(0.00415542 -0.0132556 0)
(-0.00316819 -0.0085674 0)
(0.00177224 -0.0179149 0)
(-0.00383996 -0.0296714 0)
(-0.00701602 -0.0259947 0)
(0.00587007 -0.0713687 0)
(-0.000689777 0.0578242 0)
(0.000801812 0.0353412 0)
(0.000757592 0.00102485 0)
(-0.00317871 -0.00470823 0)
(-0.00354872 0.00394398 0)
(-0.00107606 -0.000611068 0)
(-0.00487785 -0.00761844 0)
(0.000929949 0.00264926 0)
(0.00447802 0.00554506 0)
(0.00729454 0.00915368 0)
(0.00485585 0.00570736 0)
(0.000875227 0.00053803 0)
(0.00133455 -0.00227867 0)
(-0.00497541 0.00675307 0)
(0.00457766 -0.00390623 0)
(-0.00106216 -0.0089682 0)
(0.0041929 -0.0117038 0)
(-0.00201424 -0.0110289 0)
(-0.00590435 -0.0195107 0)
(0.00586755 -0.0641366 0)
(0.000363803 0.0583125 0)
(0.000156982 0.0345669 0)
(-0.000193206 0.019154 0)
(-0.000670959 0.0126007 0)
(-0.00185148 0.00107503 0)
(6.19793e-05 3.99092e-05 0)
(-0.00480047 -0.00105957 0)
(0.00113362 -0.00388882 0)
(0.00606059 0.00163728 0)
(0.00416231 0.0097352 0)
(0.0104837 0.0128125 0)
(0.00389485 0.00545812 0)
(0.00301603 0.0062834 0)
(-0.00264797 0.0119847 0)
(0.00193123 -0.0164328 0)
(0.00459609 -0.00890257 0)
(0.00226412 -0.0117735 0)
(0.0158132 -0.0201769 0)
(-0.00467562 -0.0289513 0)
(0.00799615 -0.0665313 0)
(-0.000113299 0.0567027 0)
(0.00173385 0.0342979 0)
(0.000360491 0.00245248 0)
(-0.00364242 -0.00389907 0)
(0.00893416 0.00160857 0)
(-0.0010505 0.00293932 0)
(0.00833711 -0.0103725 0)
(0.014816 -0.00972982 0)
(0.00713367 0.00102509 0)
(0.0097464 0.00307461 0)
(0.0128147 0.00779138 0)
(0.0159966 0.0062463 0)
(0.00963394 0.00384736 0)
(0.0215676 0.00593098 0)
(0.00930581 -0.0102157 0)
(0.0260277 -0.0156117 0)
(0.00717132 -0.0225423 0)
(0.0107248 -0.00677322 0)
(-0.00693872 -0.0127453 0)
(0.0100595 -0.0637015 0)
(0.00128132 0.056147 0)
(0.00226195 0.0349934 0)
(0.00679197 0.0220734 0)
(0.00347431 0.00643909 0)
(0.000158802 -0.0024053 0)
(0.00861995 0.00199045 0)
(0.0114194 -0.0151998 0)
(0.0110449 -0.00347628 0)
(0.00693252 0.00818464 0)
(0.0170543 0.0050531 0)
(0.00747141 0.00526815 0)
(0.0217785 0.0129104 0)
(0.00764209 -0.0007934 0)
(0.0239989 0.0139747 0)
(0.0138177 -0.0101375 0)
(0.0153254 -0.00768773 0)
(-0.0178948 0.0108369 0)
(0.00930341 -0.0115364 0)
(-0.0124078 -0.0197676 0)
(0.0125513 -0.0675389 0)
(0.00161157 0.0525524 0)
(0.00789547 0.0309461 0)
(0.00181352 0.00537122 0)
(0.0106519 0.00022067 0)
(0.00847882 -0.00337836 0)
(0.00261266 -0.0101743 0)
(0.0173903 -0.00871833 0)
(-0.0024551 -0.0085426 0)
(0.022758 -0.00233179 0)
(0.0216063 -0.000364493 0)
(0.0246005 0.00542447 0)
(0.0163247 0.00287137 0)
(0.0230652 0.000311556 0)
(0.0105097 -0.000997937 0)
(0.0261076 -0.00472431 0)
(0.00457194 0.0088014 0)
(0.00772868 -0.0137574 0)
(0.0200234 -0.0184674 0)
(-0.00971878 -0.0246161 0)
(0.00920998 -0.0658961 0)
(0.00376429 0.0475935 0)
(0.0119888 0.0314146 0)
(0.0224974 0.0178582 0)
(0.0109287 0.00161138 0)
(0.0234712 0.00304281 0)
(0.0124235 -0.00479735 0)
(0.0231741 -0.0129471 0)
(0.0131737 -0.013083 0)
(0.0243632 -0.0117229 0)
(0.010886 0.00157774 0)
(0.0265371 0.0102075 0)
(0.0208617 0.0163367 0)
(0.0192144 0.00426798 0)
(0.0258532 0.0127311 0)
(0.0189366 -0.0030834 0)
(0.0224427 0.0120613 0)
(0.0220503 -0.001441 0)
(0.0126701 0.00945834 0)
(0.00280493 0.00301339 0)
(0.0170067 -0.0585919 0)
(0.00675006 0.0362998 0)
(0.0194442 0.0197676 0)
(0.0244201 0.00884886 0)
(0.0305332 -0.00037798 0)
(0.0177023 -0.00457707 0)
(0.0235029 -0.00722217 0)
(0.0023682 -0.00727654 0)
(-0.00416995 -0.00553589 0)
(-0.0265416 -0.0051852 0)
(-0.0193672 -0.00421721 0)
(-0.0257615 0.000205588 0)
(-0.00732504 0.00387399 0)
(-0.0142489 -0.00482555 0)
(-0.00247918 0.00494614 0)
(-0.00469707 -0.00686017 0)
(-0.0103889 0.00870238 0)
(0.0116314 -0.00969438 0)
(-0.0143116 -0.00262942 0)
(0.0243967 -0.0384442 0)
(0.0140328 -0.0634365 0)
(0.0140362 0.0207428 0)
(0.0348169 0.0146053 0)
(0.0496219 0.0106526 0)
(0.0517681 0.00786913 0)
(0.0608656 0.00836671 0)
(0.0555276 0.00856043 0)
(0.0633453 0.0100324 0)
(0.0579964 0.0102687 0)
(0.0655756 0.00929945 0)
(0.0618718 0.00431949 0)
(0.0690743 0.00255105 0)
(0.0626737 -0.000883326 0)
(0.0694922 0.00349373 0)
(0.0652446 -0.000716848 0)
(0.0687586 0.00425257 0)
(0.0686541 -0.000516842 0)
(0.0669827 0.00260502 0)
(0.0685559 0.000175743 0)
(0.0545553 -0.0054504 0)
(0.0343738 -0.002039 0)
)
;

boundaryField
{
    movingWall
    {
        type            fixedValue;
        value           uniform (1 0 0);
    }
    fixedWalls
    {
        type            noSlip;
    }
    frontAndBack
    {
        type            empty;
    }
}


// ************************************************************************* //
