/*--------------------------------*- C++ -*----------------------------------*\
| =========                 |                                                 |
| \\      /  F ield         | OpenFOAM: The Open Source CFD Toolbox           |
|  \\    /   O peration     | Version:  5.x                                   |
|   \\  /    A nd           | Web:      www.OpenFOAM.org                      |
|    \\/     M anipulation  |                                                 |
\*---------------------------------------------------------------------------*/
FoamFile
{
    version     2.0;
    format      ascii;
    class       surfaceScalarField;
    location    "9.6";
    object      phi;
}
// * * * * * * * * * * * * * * * * * * * * * * * * * * * * * * * * * * * * * //

dimensions      [0 3 -1 0 0 0 0];

internalField   nonuniform List<scalar> 
760
(
-8.72991e-07
8.7299e-07
-1.49861e-06
6.25619e-07
-1.94684e-06
4.48235e-07
-2.15034e-06
2.03498e-07
-2.22175e-06
7.14028e-08
-2.25943e-06
3.76856e-08
-2.30381e-06
4.43778e-08
-2.38638e-06
8.25674e-08
-2.37808e-06
-8.29753e-09
-2.32981e-06
-4.827e-08
-2.41871e-06
8.89003e-08
-2.39423e-06
-2.44791e-08
-2.35634e-06
-3.78952e-08
-2.37222e-06
1.58811e-08
-2.3529e-06
-1.93174e-08
-2.27716e-06
-7.57347e-08
-2.21419e-06
-6.29734e-08
-1.86608e-06
-3.48111e-07
-1.21524e-06
-6.50837e-07
-1.21524e-06
-5.11693e-07
1.38468e-06
-8.07599e-07
9.21526e-07
-8.88437e-07
5.29072e-07
-9.52092e-07
2.67153e-07
-9.78033e-07
9.73441e-08
-9.87189e-07
4.68419e-08
-9.70553e-07
2.77417e-08
-9.42973e-07
5.49876e-08
-9.69203e-07
1.79323e-08
-1.01832e-06
8.44911e-10
-9.71842e-07
4.24244e-08
-9.68328e-07
-2.79934e-08
-1.00874e-06
2.51839e-09
-9.4846e-07
-4.44006e-08
-9.68614e-07
8.37113e-10
-9.40468e-07
-1.03881e-07
-9.76813e-07
-2.66282e-08
-1.04376e-06
-2.81164e-07
-9.1252e-07
-7.82077e-07
-2.12776e-06
-4.08166e-07
1.79285e-06
-6.76552e-07
1.18991e-06
-7.833e-07
6.3582e-07
-7.58569e-07
2.42423e-07
-6.50922e-07
-1.03034e-08
-5.68334e-07
-3.57457e-08
-4.7488e-07
-6.57122e-08
-3.70568e-07
-4.93243e-08
-3.0466e-07
-4.79759e-08
-2.60559e-07
-4.32557e-08
-1.98644e-07
-1.94912e-08
-1.87588e-07
-3.90489e-08
-1.60111e-07
-2.49592e-08
-1.48469e-07
-5.60418e-08
-1.26756e-07
-2.08759e-08
-1.13598e-07
-1.1704e-07
-1.15212e-07
-2.50137e-08
-1.14362e-07
-2.82014e-07
-2.15812e-07
-6.80627e-07
-2.34358e-06
-3.16097e-07
2.10895e-06
-5.98041e-07
1.47186e-06
-7.66862e-07
8.04642e-07
-7.37235e-07
2.12796e-07
-6.19467e-07
-1.28071e-07
-5.01115e-07
-1.54098e-07
-3.84955e-07
-1.81872e-07
-2.82264e-07
-1.52016e-07
-2.10992e-07
-1.19248e-07
-1.51111e-07
-1.03137e-07
-1.10928e-07
-5.96739e-08
-8.13994e-08
-6.85779e-08
-8.87899e-08
-1.75688e-08
-8.43895e-08
-6.04421e-08
-1.30942e-07
2.56768e-08
-1.6056e-07
-8.74219e-08
-1.9046e-07
4.88602e-09
-2.28152e-07
-2.44321e-07
-1.90786e-07
-7.17994e-07
-2.53436e-06
-3.17508e-07
2.42645e-06
-6.17088e-07
1.77143e-06
-7.97941e-07
9.85494e-07
-7.79044e-07
1.93899e-07
-6.56862e-07
-2.50253e-07
-5.05227e-07
-3.05733e-07
-3.88454e-07
-2.98645e-07
-2.93494e-07
-2.46976e-07
-2.20347e-07
-1.92395e-07
-1.58401e-07
-1.65083e-07
-1.04222e-07
-1.13853e-07
-5.90212e-08
-1.13779e-07
-1.88745e-08
-5.77154e-08
2.02573e-08
-9.95739e-08
5.06951e-08
-4.76105e-09
9.11498e-08
-1.27877e-07
8.29149e-08
1.31209e-08
4.16976e-08
-2.03104e-07
-1.37194e-08
-6.62577e-07
-2.54808e-06
-2.57547e-07
2.684e-06
-4.88918e-07
2.00281e-06
-6.93649e-07
1.19022e-06
-7.14259e-07
2.14509e-07
-5.85289e-07
-3.79223e-07
-4.09827e-07
-4.81194e-07
-2.761e-07
-4.32372e-07
-1.78855e-07
-3.44221e-07
-1.14366e-07
-2.56884e-07
-7.13353e-08
-2.08114e-07
-4.83796e-08
-1.36809e-07
-3.13848e-08
-1.30773e-07
-2.51002e-08
-6.40001e-08
-2.73956e-08
-9.72785e-08
-1.62697e-08
-1.58869e-08
-4.35977e-08
-1.00548e-07
-2.05781e-08
-9.89873e-09
-1.69441e-08
-2.06738e-07
-1.80784e-08
-6.61443e-07
-2.56616e-06
-1.40193e-07
2.82419e-06
-3.33472e-07
2.19608e-06
-5.08742e-07
1.3655e-06
-5.38201e-07
2.43968e-07
-4.29787e-07
-4.87638e-07
-2.88879e-07
-6.22102e-07
-1.89087e-07
-5.32163e-07
-1.19154e-07
-4.14154e-07
-6.60443e-08
-3.09994e-07
-3.213e-08
-2.42028e-07
3.51556e-09
-1.72454e-07
2.11404e-08
-1.48398e-07
4.12168e-08
-8.40765e-08
5.62183e-08
-1.1228e-07
5.8793e-08
-1.84616e-08
6.67819e-08
-1.08537e-07
4.80291e-08
8.85406e-09
8.59763e-09
-1.67306e-07
-1.66773e-08
-6.36168e-07
-2.58284e-06
1.66701e-09
2.82253e-06
-1.22552e-07
2.3203e-06
-1.84279e-07
1.42722e-06
-2.01543e-07
2.61232e-07
-1.56831e-07
-5.32349e-07
-9.02688e-08
-6.88665e-07
-4.24933e-08
-5.79939e-07
-2.77818e-08
-4.28865e-07
-4.26046e-09
-3.33515e-07
-3.23572e-09
-2.43053e-07
1.11248e-08
-1.86815e-07
5.60979e-09
-1.42883e-07
1.67948e-08
-9.52615e-08
6.4783e-09
-1.01964e-07
2.28314e-08
-3.48146e-08
6.63398e-09
-9.234e-08
1.6849e-08
-1.36094e-09
2.78647e-08
-1.78322e-07
3.09049e-08
-6.39208e-07
-2.55193e-06
4.90252e-08
2.7735e-06
1.2864e-07
2.24069e-06
1.53576e-07
1.40229e-06
1.59633e-07
2.55175e-07
1.5558e-07
-5.28296e-07
1.77692e-07
-7.10776e-07
1.81774e-07
-5.84021e-07
1.71866e-07
-4.18957e-07
1.44668e-07
-3.06317e-07
1.2582e-07
-2.24205e-07
1.0884e-07
-1.69835e-07
1.00448e-07
-1.34491e-07
9.46381e-08
-8.94512e-08
8.14386e-08
-8.8764e-08
6.87321e-08
-2.21081e-08
5.85906e-08
-8.21984e-08
4.113e-08
1.60996e-08
-2.68357e-09
-1.34509e-07
-3.63738e-08
-6.05518e-07
-2.5883e-06
3.95449e-07
2.37805e-06
6.19733e-07
2.01641e-06
6.49571e-07
1.37245e-06
6.59046e-07
2.45701e-07
5.64431e-07
-4.33682e-07
3.86968e-07
-5.33313e-07
2.27098e-07
-4.24151e-07
1.52891e-07
-3.4475e-07
1.2371e-07
-2.77136e-07
1.05984e-07
-2.06479e-07
8.74398e-08
-1.51291e-07
5.98525e-08
-1.06904e-07
6.03414e-08
-8.99401e-08
3.3749e-08
-6.21716e-08
6.49742e-08
-5.33333e-08
8.47624e-08
-1.01987e-07
5.61939e-08
4.46681e-08
5.14978e-08
-1.29813e-07
3.99681e-08
-5.93988e-07
-2.54834e-06
7.02679e-07
1.67537e-06
9.24631e-07
1.79445e-06
9.99319e-07
1.29776e-06
9.73861e-07
2.71158e-07
8.76484e-07
-3.36305e-07
7.82469e-07
-4.39298e-07
6.5298e-07
-2.94661e-07
4.73393e-07
-1.65163e-07
3.20454e-07
-1.24197e-07
2.13607e-07
-9.96313e-08
1.74045e-07
-1.11729e-07
1.44604e-07
-7.74635e-08
1.3155e-07
-7.68865e-08
1.16382e-07
-4.70034e-08
7.64201e-08
-1.33712e-08
1.68504e-08
-4.24169e-08
2.727e-08
3.42485e-08
-1.00185e-08
-9.2524e-08
-5.277e-08
-5.51236e-07
-2.60111e-06
8.87604e-07
7.8777e-07
1.13104e-06
1.55101e-06
1.26534e-06
1.16347e-06
1.1278e-06
4.08696e-07
8.60154e-07
-6.8659e-08
7.2335e-07
-3.02495e-07
6.52896e-07
-2.24207e-07
5.63292e-07
-7.55585e-08
4.16241e-07
2.28535e-08
3.01898e-07
1.47114e-08
1.96598e-07
-6.42888e-09
1.2948e-07
-1.03453e-08
6.40705e-08
-1.14771e-08
-3.61326e-08
5.31998e-08
4.60924e-08
-9.55962e-08
-1.22747e-08
1.59501e-08
1.9961e-08
2.01282e-09
7.27586e-08
-1.45322e-07
2.04136e-08
-4.98891e-07
-2.58069e-06
7.29934e-07
5.78361e-08
1.2179e-06
1.06305e-06
1.52822e-06
8.5315e-07
1.41403e-06
5.22882e-07
9.78051e-07
3.67321e-07
4.73574e-07
2.01982e-07
1.76901e-07
7.24657e-08
6.71714e-08
3.41717e-08
7.68128e-08
1.32121e-08
5.53845e-08
3.61397e-08
1.1379e-07
-6.48348e-08
1.4566e-08
8.88792e-08
1.14093e-07
-1.11004e-07
8.8739e-08
7.85533e-08
7.27684e-08
-7.96256e-08
5.55917e-08
3.31269e-08
8.50659e-08
-2.74614e-08
1.15113e-07
-1.75368e-07
-1.72228e-08
-3.66556e-07
-2.59792e-06
3.8705e-07
-3.29214e-07
7.79201e-07
6.70896e-07
1.03722e-06
5.95133e-07
1.08062e-06
4.79483e-07
1.04751e-06
4.0043e-07
9.44253e-07
3.05237e-07
8.49811e-07
1.66908e-07
7.48595e-07
1.35388e-07
6.8698e-07
7.48273e-08
5.90526e-07
1.32593e-07
5.36689e-07
-1.09978e-08
4.66198e-07
1.5937e-07
3.1505e-07
4.01444e-08
2.2276e-07
1.70843e-07
-1.2743e-07
2.70565e-07
-4.14722e-07
3.20418e-07
-1.88716e-07
-2.53468e-07
-7.63965e-08
-2.87688e-07
1.95834e-08
-4.62536e-07
-2.57833e-06
2.91021e-07
-6.20236e-07
5.78933e-07
3.82984e-07
5.42529e-07
6.31537e-07
4.64845e-07
5.57167e-07
3.87708e-07
4.77567e-07
3.58012e-07
3.34932e-07
2.26762e-07
2.98158e-07
1.67027e-07
1.95123e-07
1.55931e-08
2.26261e-07
-1.56711e-08
1.63858e-07
-1.56102e-07
1.29433e-07
-1.77757e-07
1.81025e-07
-1.91025e-07
5.34119e-08
-2.77996e-07
2.57814e-07
8.91963e-09
-1.63506e-08
1.31256e-07
1.98082e-07
4.17508e-08
-1.63963e-07
-2.37968e-07
-7.96868e-09
-8.82264e-08
-6.12278e-07
-2.66656e-06
4.6346e-08
-6.66582e-07
2.0219e-07
2.2714e-07
3.08691e-07
5.25036e-07
4.79553e-07
3.86305e-07
4.9317e-07
4.6395e-07
5.61896e-07
2.66206e-07
5.29742e-07
3.30313e-07
5.06947e-07
2.17918e-07
4.84711e-07
2.48497e-07
4.59875e-07
1.88694e-07
4.52537e-07
1.36771e-07
3.4659e-07
2.86972e-07
4.16668e-07
-1.6666e-08
3.46329e-07
3.28154e-07
2.89257e-07
4.07214e-08
4.37538e-07
4.98013e-08
3.44792e-07
-7.12166e-08
5.13825e-08
2.8544e-07
7.63079e-08
-6.37203e-07
-2.59025e-06
-2.60803e-07
-4.05779e-07
-5.13693e-07
4.8003e-07
-3.02906e-07
3.14249e-07
-2.20983e-07
3.04382e-07
-1.66364e-07
4.09331e-07
-1.3053e-07
2.30371e-07
-5.65151e-08
2.56298e-07
-8.92312e-08
2.50634e-07
-9.97042e-09
1.69236e-07
-2.61073e-08
2.0483e-07
-2.04958e-08
1.3116e-07
9.59729e-08
1.70503e-07
-4.3381e-08
1.22688e-07
3.95763e-08
2.45197e-07
-5.32982e-08
1.33596e-07
-3.13901e-07
3.10404e-07
1.2618e-07
-5.11298e-07
2.91536e-07
1.20084e-07
5.06521e-08
-3.96319e-07
-2.5396e-06
-5.81369e-08
-3.47642e-07
2.42707e-07
1.79186e-07
3.11427e-07
2.45528e-07
3.3009e-07
2.8572e-07
4.27514e-07
3.11906e-07
4.65264e-07
1.92621e-07
5.19242e-07
2.02321e-07
5.72385e-07
1.9749e-07
5.80968e-07
1.60653e-07
6.34074e-07
1.51725e-07
5.88585e-07
1.76649e-07
6.01389e-07
1.577e-07
6.30605e-07
9.34717e-08
5.18706e-07
3.57096e-07
7.11428e-07
-5.91266e-08
6.07635e-07
4.14198e-07
4.0816e-07
-3.11823e-07
2.95359e-07
2.32885e-07
2.55434e-07
-3.56394e-07
-2.28416e-06
-7.36936e-07
3.89294e-07
-8.44887e-07
2.87138e-07
-8.43801e-07
2.44442e-07
-7.35723e-07
1.77642e-07
-6.36606e-07
2.1279e-07
-5.89945e-07
1.4596e-07
-5.37469e-07
1.49845e-07
-4.91566e-07
1.51587e-07
-4.55505e-07
1.24593e-07
-4.16503e-07
1.12722e-07
-3.50692e-07
1.10838e-07
-2.91933e-07
9.89407e-08
-2.50218e-07
5.1757e-08
-7.20707e-08
1.78948e-07
-1.95764e-07
6.45667e-08
7.21218e-08
1.46312e-07
-2.23451e-07
-1.62501e-08
8.55868e-08
-7.61529e-08
7.28814e-07
-9.99621e-07
-1.55535e-06
3.89294e-07
6.76432e-07
9.20874e-07
1.09852e-06
1.31131e-06
1.45727e-06
1.60711e-06
1.7587e-06
1.88329e-06
1.99601e-06
2.10685e-06
2.20579e-06
2.25755e-06
2.4365e-06
2.50106e-06
2.64737e-06
2.63112e-06
2.55497e-06
1.55535e-06
)
;

boundaryField
{
    movingWall
    {
        type            calculated;
        value           uniform 0;
    }
    fixedWalls
    {
        type            calculated;
        value           uniform 0;
    }
    frontAndBack
    {
        type            empty;
        value           nonuniform 0();
    }
}


// ************************************************************************* //
