/*--------------------------------*- C++ -*----------------------------------*\
| =========                 |                                                 |
| \\      /  F ield         | OpenFOAM: The Open Source CFD Toolbox           |
|  \\    /   O peration     | Version:  5.x                                   |
|   \\  /    A nd           | Web:      www.OpenFOAM.org                      |
|    \\/     M anipulation  |                                                 |
\*---------------------------------------------------------------------------*/
FoamFile
{
    version     2.0;
    format      ascii;
    class       volVectorField;
    location    "9.6";
    object      U;
}
// * * * * * * * * * * * * * * * * * * * * * * * * * * * * * * * * * * * * * //

dimensions      [0 1 -1 0 0 0 0];

internalField   nonuniform List<vector> 
400
(
(-0.0118721 0.00568625 0)
(-0.0255242 0.00430252 0)
(-0.0355676 0.00420488 0)
(-0.0418385 -0.00073842 0)
(-0.0432993 -0.00233038 0)
(-0.0445974 -0.00210393 0)
(-0.0445988 -0.0012077 0)
(-0.0467967 -0.000566076 0)
(-0.049542 -0.00284626 0)
(-0.0458131 -0.0035882 0)
(-0.0460054 0.00121808 0)
(-0.0518839 -0.00192482 0)
(-0.0442503 -0.0034554 0)
(-0.0482095 7.47756e-06 0)
(-0.0494497 -0.00247298 0)
(-0.0444607 -0.00258015 0)
(-0.0479003 -0.0020062 0)
(-0.0389475 -0.00607365 0)
(-0.0404007 -0.00895907 0)
(-0.0022282 -0.0148904 0)
(-0.00727004 0.0262149 0)
(-0.0147377 0.0186054 0)
(-0.018251 0.0122177 0)
(-0.0181018 0.00793604 0)
(-0.0190158 0.00480481 0)
(-0.0196821 0.00344127 0)
(-0.0189061 0.00289252 0)
(-0.0195113 0.00368203 0)
(-0.0190734 0.0024857 0)
(-0.0194832 0.00159716 0)
(-0.0203522 0.0024936 0)
(-0.0191226 0.000856459 0)
(-0.020379 0.00171396 0)
(-0.0182394 0.000632979 0)
(-0.0217107 0.00155023 0)
(-0.0153071 -0.00074779 0)
(-0.023542 -0.00109408 0)
(-0.0161442 -0.009885 0)
(-0.0285189 -0.0203142 0)
(-0.00358765 -0.0387104 0)
(-0.00513693 0.0312083 0)
(-0.0124327 0.0196654 0)
(-0.0153819 0.0100026 0)
(-0.0159673 0.00368308 0)
(-0.0134811 -0.000436416 0)
(-0.0123916 -0.00134011 0)
(-0.0100885 -0.00167964 0)
(-0.00847688 -0.00125183 0)
(-0.00692253 -0.00162759 0)
(-0.00470337 -0.00156167 0)
(-0.00611303 -0.000944341 0)
(-0.00154144 -0.0018206 0)
(-0.00635625 -0.00157895 0)
(0.000494005 -0.00246131 0)
(-0.00702081 -0.00148088 0)
(0.00241119 -0.00332151 0)
(-0.00727034 0.000279322 0)
(0.00241883 -0.00016241 0)
(-0.00758788 -0.00849425 0)
(0.000372393 -0.0438031 0)
(-0.00345658 0.0397249 0)
(-0.010105 0.0274787 0)
(-0.0145659 0.015211 0)
(-0.0160033 0.00560059 0)
(-0.0126626 -0.000101858 0)
(-0.0117012 -0.000295616 0)
(-0.00857519 -0.00118163 0)
(-0.00636759 -0.000917254 0)
(-0.00538173 -0.000472896 0)
(-0.00268047 -0.000290967 0)
(-0.00364115 0.00024308 0)
(-0.000546915 0.000151916 0)
(-0.00298412 0.000542913 0)
(-0.000216222 0.000282875 0)
(-0.00351748 0.000734629 0)
(-0.00130208 -0.00101264 0)
(-0.00553416 -0.00112617 0)
(-0.00157411 -0.0105374 0)
(-0.00851009 -0.0199308 0)
(0.00192106 -0.0498791 0)
(-0.00301386 0.0436664 0)
(-0.010479 0.0305882 0)
(-0.015151 0.0164162 0)
(-0.0165095 0.00288377 0)
(-0.0136744 -0.00471256 0)
(-0.0119787 -0.00550392 0)
(-0.00865076 -0.00575051 0)
(-0.00651424 -0.00492644 0)
(-0.00563671 -0.00410759 0)
(-0.00282325 -0.00367159 0)
(-0.00385143 -0.00260368 0)
(-1.40379e-05 -0.00291549 0)
(-0.0026115 -0.0013159 0)
(0.00202706 -0.00282745 0)
(-0.00140785 0.000114808 0)
(0.00373339 -0.00282386 0)
(-0.000467086 0.0012249 0)
(0.00408604 1.436e-05 0)
(-0.00271449 -0.00797127 0)
(0.0023807 -0.0488928 0)
(-0.00337116 0.0517854 0)
(-0.00763136 0.0387614 0)
(-0.012828 0.0220335 0)
(-0.0147721 0.00441331 0)
(-0.0127576 -0.00587986 0)
(-0.00983902 -0.00731789 0)
(-0.00699256 -0.00667719 0)
(-0.00379325 -0.00530765 0)
(-0.00368259 -0.00385047 0)
(-0.00066406 -0.0031158 0)
(-0.00241015 -0.00186717 0)
(0.000664527 -0.00156709 0)
(-0.00209107 -0.000807937 0)
(0.0012479 -0.000947189 0)
(-0.00252226 -0.000225205 0)
(0.00201625 -0.00187103 0)
(-0.00402994 -0.000529277 0)
(0.00342181 -0.00734492 0)
(-0.00431008 -0.0174874 0)
(0.00377341 -0.0520853 0)
(-0.000684209 0.0546094 0)
(-0.00546377 0.0402743 0)
(-0.00881532 0.0243649 0)
(-0.0112049 0.00365595 0)
(-0.00931314 -0.00982029 0)
(-0.00700654 -0.0121291 0)
(-0.00497327 -0.0106399 0)
(-0.00245138 -0.00851249 0)
(-0.00258784 -0.00653385 0)
(0.000123938 -0.00543629 0)
(-0.00158468 -0.00383081 0)
(0.0017994 -0.00385712 0)
(-0.00114737 -0.00197975 0)
(0.00306907 -0.00318634 0)
(-0.00114716 -0.0005558 0)
(0.00384174 -0.00250982 0)
(-0.00154877 -3.42948e-06 0)
(0.00380737 -0.00167982 0)
(-0.0036272 -0.0102539 0)
(0.00318399 -0.0503737 0)
(0.00259622 0.0571092 0)
(-0.00256639 0.0468954 0)
(-0.00309215 0.0292685 0)
(-0.00392938 0.00585854 0)
(-0.00353713 -0.0101948 0)
(-0.00216434 -0.0131053 0)
(-0.00166279 -0.0108289 0)
(-1.76826e-05 -0.00783591 0)
(-0.00124205 -0.00576736 0)
(0.00111256 -0.00387027 0)
(-0.00129933 -0.00283638 0)
(0.00188618 -0.00178121 0)
(-0.00177357 -0.00114454 0)
(0.00263304 -0.000995377 0)
(-0.00249589 -4.50824e-05 0)
(0.00363939 -0.00146736 0)
(-0.00350845 0.000478924 0)
(0.00440454 -0.00439029 0)
(-0.00356142 -0.0138332 0)
(0.00501952 -0.0518996 0)
(6.4055e-06 0.0558739 0)
(0.00168026 0.0452384 0)
(0.00248999 0.0271793 0)
(0.00385943 0.00385418 0)
(0.0033869 -0.0111716 0)
(0.00352444 -0.0143541 0)
(0.00310444 -0.0122229 0)
(0.00404478 -0.00968248 0)
(0.00242569 -0.00782606 0)
(0.00367195 -0.00628873 0)
(0.000982747 -0.00490916 0)
(0.00372764 -0.00428444 0)
(-9.20179e-05 -0.00291495 0)
(0.0042666 -0.00340068 0)
(-0.00140317 -0.00151654 0)
(0.00455251 -0.00252555 0)
(-0.00261488 -0.000574983 0)
(0.00462836 -0.00330682 0)
(-0.00483909 -0.0130552 0)
(0.00372909 -0.0510388 0)
(0.00223629 0.057343 0)
(0.0121524 0.0458161 0)
(0.0110039 0.0302242 0)
(0.0145827 0.00678898 0)
(0.0135767 -0.00932742 0)
(0.0100095 -0.0134286 0)
(0.00489883 -0.0106317 0)
(0.0040892 -0.00663785 0)
(0.00167619 -0.00407156 0)
(0.00355122 -0.00225515 0)
(0.00035166 -0.00155344 0)
(0.00345779 -0.000735206 0)
(-0.00135542 -0.000389301 0)
(0.00408776 0.000158074 0)
(-0.00300037 0.000756754 0)
(0.00597948 -0.000528147 0)
(-0.00306472 0.00136442 0)
(0.00573799 -0.00164131 0)
(-0.00408357 -0.00994744 0)
(0.00597338 -0.0513841 0)
(0.00815311 0.0409625 0)
(0.0177154 0.0376785 0)
(0.0178548 0.0268813 0)
(0.0221645 0.00383613 0)
(0.018856 -0.0071908 0)
(0.0169272 -0.00777219 0)
(0.0143431 -0.00605115 0)
(0.0117349 -0.00697068 0)
(0.00683397 -0.00711577 0)
(0.00614184 -0.00638948 0)
(0.00209579 -0.00483772 0)
(0.0051984 -0.00388221 0)
(0.000203632 -0.003526 0)
(0.00547043 -0.00291702 0)
(-0.00125228 -0.00308554 0)
(0.00473005 -0.00375369 0)
(-0.00428896 0.000216557 0)
(0.00570694 -0.00389281 0)
(-0.0063147 -0.0148848 0)
(0.00461446 -0.0519999 0)
(0.0135593 0.0278571 0)
(0.019469 0.0358311 0)
(0.0244844 0.0258363 0)
(0.0266455 0.00744111 0)
(0.0202255 -0.00601556 0)
(0.0151132 -0.00924922 0)
(0.0130198 -0.00553799 0)
(0.0132572 0.00047686 0)
(0.00916534 0.00233108 0)
(0.00786037 0.00275914 0)
(0.00383672 0.000714339 0)
(0.00430639 0.00112006 0)
(0.0005921 0.000807599 0)
(0.0022276 0.00130005 0)
(-0.00389967 0.00266879 0)
(0.0060424 0.0021034 0)
(-0.00672556 0.00125239 0)
(0.00780248 0.000413714 0)
(-0.00544047 -0.00630011 0)
(0.00652266 -0.0505205 0)
(0.00619821 0.00312123 0)
(0.0208423 0.0257091 0)
(0.0286099 0.0205469 0)
(0.0323602 0.00935941 0)
(0.0259843 0.00365595 0)
(0.0129691 -0.00241462 0)
(0.00533778 -0.00351789 0)
(0.00151944 -0.00373716 0)
(0.001404 -0.00158806 0)
(0.00147456 -0.00234733 0)
(0.000941978 -0.00104561 0)
(0.00340296 -0.0016583 0)
(-0.00290123 -0.00141539 0)
(0.00782881 0.000512396 0)
(-0.00471888 -0.00697011 0)
(0.0081215 -0.0013472 0)
(-0.00634367 -0.00114214 0)
(0.010292 -0.00668156 0)
(-0.00639431 -0.0144459 0)
(0.00597129 -0.0521321 0)
(-0.000588331 -0.00129067 0)
(0.0145869 0.0150966 0)
(0.0183934 0.0142077 0)
(0.021711 0.0113679 0)
(0.0220404 0.0102974 0)
(0.0205538 0.0100158 0)
(0.016456 0.00650525 0)
(0.0179957 0.00534574 0)
(0.0119003 0.00227669 0)
(0.0158205 0.00406556 0)
(0.00775936 -0.00128719 0)
(0.0132882 0.00561818 0)
(0.00556791 -0.00259537 0)
(0.00702056 0.00312657 0)
(0.00236307 0.00435389 0)
(-0.00786677 0.00255098 0)
(-0.00968818 0.000194735 0)
(0.0032156 0.000537133 0)
(-0.00693734 0.000937153 0)
(0.00795961 -0.051167 0)
(-0.0043698 -0.0109631 0)
(0.0149487 0.0118782 0)
(0.00952405 0.00839749 0)
(0.0115783 0.00715058 0)
(0.00669566 0.00600743 0)
(0.00930358 0.00263394 0)
(0.00462494 0.000627394 0)
(0.00465054 0.000148675 0)
(0.00173834 0.000492557 0)
(-0.00102855 0.000869729 0)
(0.00045873 0.000748984 0)
(-0.00722287 0.00011569 0)
(0.000906092 0.00403311 0)
(-0.00942945 0.00283195 0)
(-0.000813768 0.00537113 0)
(0.0011492 0.00946354 0)
(0.00348454 -0.0113613 0)
(-0.00134354 -0.0132781 0)
(-0.0094831 -0.021227 0)
(0.00668606 -0.0543447 0)
(-0.00319726 -0.0162672 0)
(0.00534869 0.00279931 0)
(0.00267048 0.0160542 0)
(0.00934797 0.0141196 0)
(0.00945016 0.0122898 0)
(0.01102 0.0101583 0)
(0.0104119 0.0104093 0)
(0.0117131 0.0071805 0)
(0.00776798 0.00835966 0)
(0.0123091 0.00586248 0)
(0.00554128 0.00486794 0)
(0.0129442 0.00782539 0)
(0.00135004 -0.001735 0)
(0.0144645 0.00845158 0)
(0.000143385 -0.00582246 0)
(0.0111283 -0.000573688 0)
(0.0063577 0.00592335 0)
(0.00744002 0.0130908 0)
(-0.00567058 -0.00115052 0)
(0.00917553 -0.0511841 0)
(0.0015732 -0.00770261 0)
(-0.0130942 0.00690698 0)
(-0.00640178 0.00558755 0)
(-0.0050974 0.00214616 0)
(-0.00426811 0.00681212 0)
(-0.00206988 0.000747208 0)
(-0.00343826 0.00356641 0)
(0.00145068 0.00202761 0)
(-0.00548561 0.00128501 0)
(0.00527701 0.00201903 0)
(-0.00663748 3.25818e-05 0)
(0.00605018 0.00288669 0)
(-0.00226998 0.000959759 0)
(0.000188906 0.00374559 0)
(0.0018531 0.00759032 0)
(-0.00447285 0.00209922 0)
(-0.00896736 -0.00957084 0)
(0.0150545 -0.00253741 0)
(-0.00525537 -0.0268618 0)
(0.00805541 -0.0538647 0)
(-0.0045186 -0.00973937 0)
(0.00160725 0.0114048 0)
(0.00902009 0.00697222 0)
(0.00365137 0.00958616 0)
(0.00939591 0.00968453 0)
(0.00762263 0.00823144 0)
(0.0108222 0.00626953 0)
(0.00989783 0.00747758 0)
(0.0126598 0.00580356 0)
(0.0110935 0.00573349 0)
(0.0133713 0.00577301 0)
(0.0113672 0.00452388 0)
(0.0114971 0.004321 0)
(0.014701 0.00681995 0)
(0.00675351 -0.00260892 0)
(0.019869 0.0105374 0)
(0.00509714 -0.00927468 0)
(0.0128279 0.0085084 0)
(-0.00250153 0.0131712 0)
(0.0140801 -0.0462538 0)
(-0.0196063 -0.002975 0)
(-0.0116779 -0.0036141 0)
(-0.0211254 0.00222087 0)
(-0.0119488 0.00131431 0)
(-0.016772 0.00257457 0)
(-0.00870631 -0.000242783 0)
(-0.0152112 0.0017724 0)
(-0.00619947 0.000793699 0)
(-0.0137464 0.000415219 0)
(-0.00371187 0.000578121 0)
(-0.013967 0.000665517 0)
(0.00104292 0.00127936 0)
(-0.013808 -0.00112975 0)
(0.0048264 0.00666488 0)
(-0.00812674 -5.63911e-05 0)
(-0.000309052 0.00637769 0)
(0.00389853 -0.00283246 0)
(-0.0145714 -0.00146178 0)
(0.0187144 -0.0298817 0)
(0.0132679 -0.0524254 0)
(0.000359201 0.0169323 0)
(0.0150954 0.0145722 0)
(0.012961 0.00838091 0)
(0.022725 0.0063343 0)
(0.0219455 0.00615351 0)
(0.0297379 0.00585778 0)
(0.0296683 0.00446393 0)
(0.0332972 0.00502095 0)
(0.0378719 0.00467241 0)
(0.0371498 0.00401158 0)
(0.0425758 0.00423309 0)
(0.0417921 0.00292133 0)
(0.0462475 0.00365064 0)
(0.045791 0.00104248 0)
(0.0495209 0.00303466 0)
(0.0510471 -7.70278e-06 0)
(0.0517749 0.00205143 0)
(0.05196 -0.000317637 0)
(0.0450909 -0.00524219 0)
(0.0251299 -0.000678145 0)
)
;

boundaryField
{
    movingWall
    {
        type            fixedValue;
        value           uniform (1 0 0);
    }
    fixedWalls
    {
        type            noSlip;
    }
    frontAndBack
    {
        type            empty;
    }
}


// ************************************************************************* //
