/*--------------------------------*- C++ -*----------------------------------*\
| =========                 |                                                 |
| \\      /  F ield         | OpenFOAM: The Open Source CFD Toolbox           |
|  \\    /   O peration     | Version:  5.x                                   |
|   \\  /    A nd           | Web:      www.OpenFOAM.org                      |
|    \\/     M anipulation  |                                                 |
\*---------------------------------------------------------------------------*/
FoamFile
{
    version     2.0;
    format      ascii;
    class       volScalarField;
    location    "6";
    object      p;
}
// * * * * * * * * * * * * * * * * * * * * * * * * * * * * * * * * * * * * * //

dimensions      [0 2 -2 0 0 0 0];

internalField   nonuniform List<scalar> 
400
(
5.76047e-11
6.97957e-06
2.21937e-05
4.78367e-05
8.75938e-05
0.000144652
0.000206364
0.000199671
-1.22219e-05
-0.000341432
-0.000591261
-0.000780932
-0.000907578
-0.000854345
-0.00066897
-0.000443574
-0.000184856
0.00012872
0.000540745
0.00120241
-9.57738e-06
-4.5073e-06
5.85729e-06
2.13099e-05
4.03815e-05
5.75471e-05
5.41045e-05
-3.20938e-05
-0.000260178
-0.00045642
-0.000547769
-0.000768514
-0.0010431
-0.00103424
-0.000811025
-0.000580148
-0.000379653
-0.000164133
0.000101722
0.000563026
-2.66756e-05
-2.38385e-05
-1.84474e-05
-1.16637e-05
-6.16063e-06
-8.07233e-06
-3.02564e-05
-9.41297e-05
-0.000222488
-0.000392326
-0.00060161
-0.000894713
-0.00101895
-0.00094969
-0.000797867
-0.000614844
-0.000444492
-0.000292322
-0.000161802
0.000118767
-4.80226e-05
-4.72713e-05
-4.62134e-05
-4.6347e-05
-5.03363e-05
-6.2992e-05
-9.2374e-05
-0.000148681
-0.000243471
-0.000373624
-0.000519957
-0.000653015
-0.000729197
-0.000730906
-0.000675397
-0.000543075
-0.000435793
-0.000324778
-0.000298489
-0.000120807
-7.0952e-05
-7.17929e-05
-7.38735e-05
-7.85903e-05
-8.81107e-05
-0.000105745
-0.000136638
-0.000184945
-0.000256893
-0.00034677
-0.000443204
-0.000527784
-0.000592646
-0.000602407
-0.000562072
-0.00047631
-0.000418216
-0.00033346
-0.000298875
-0.000236129
-9.33945e-05
-9.53087e-05
-9.94022e-05
-0.000106748
-0.000118965
-0.000137925
-0.000166547
-0.000207131
-0.000260584
-0.000322676
-0.000388162
-0.000442666
-0.000483068
-0.00048457
-0.000469052
-0.000415245
-0.000382707
-0.0003179
-0.000317371
-0.000268169
-0.000114043
-0.000116647
-0.00012193
-0.000130577
-0.000143572
-0.000162239
-0.000187759
-0.000220781
-0.000261197
-0.000305527
-0.000351325
-0.000388411
-0.000418294
-0.0004222
-0.000420927
-0.000375479
-0.000374624
-0.000303594
-0.000352686
-0.000269429
-0.000132138
-0.000135174
-0.000141146
-0.000150318
-0.000163243
-0.000180362
-0.000202409
-0.000229056
-0.000260235
-0.000292711
-0.000326086
-0.000350841
-0.00037393
-0.000371025
-0.000380225
-0.000339366
-0.000355463
-0.000286753
-0.000353631
-0.000299033
-0.000147227
-0.000150759
-0.000157321
-0.00016679
-0.000179194
-0.000194718
-0.000213524
-0.000235123
-0.000259494
-0.000283652
-0.00030891
-0.000326451
-0.000345809
-0.00034484
-0.000356112
-0.000320925
-0.000346092
-0.000272292
-0.000330138
-0.000237587
-0.00015922
-0.00016382
-0.000170785
-0.000180064
-0.000191543
-0.000204939
-0.000220944
-0.00023823
-0.000257745
-0.000275589
-0.000295756
-0.000305998
-0.000324312
-0.000313117
-0.000336006
-0.000291647
-0.00032935
-0.000242213
-0.000295865
-0.000226459
-0.00016721
-0.000172834
-0.000181805
-0.000191809
-0.000203023
-0.000215494
-0.000229091
-0.000243379
-0.000258917
-0.000272686
-0.000289014
-0.000297099
-0.000313205
-0.000308957
-0.00032622
-0.000300543
-0.000330857
-0.000273782
-0.00037426
-0.000285207
-0.000171919
-0.000183255
-0.000192484
-0.000202221
-0.000211657
-0.000221052
-0.00023258
-0.000243213
-0.000256285
-0.000265677
-0.000279775
-0.000282228
-0.000298086
-0.000285203
-0.000310434
-0.000271452
-0.000324972
-0.000249816
-0.000342511
-0.000247732
-0.000171633
-0.000185284
-0.000200394
-0.000211904
-0.000222242
-0.000232935
-0.000242111
-0.000251327
-0.000260953
-0.000268876
-0.000279917
-0.000283624
-0.000296946
-0.000292602
-0.000312065
-0.000294794
-0.000319771
-0.000281738
-0.000345
-0.000282077
-0.000170316
-0.000209832
-0.000215051
-0.000227704
-0.00023085
-0.000235154
-0.00024184
-0.000246487
-0.000255542
-0.000260007
-0.000270445
-0.00026975
-0.00028127
-0.00027232
-0.00028604
-0.000266988
-0.000306305
-0.000271748
-0.000330088
-0.000284474
-0.000191569
-0.000245312
-0.000229112
-0.000233669
-0.000247797
-0.000254687
-0.000254497
-0.000260249
-0.000263962
-0.000269983
-0.000275351
-0.000280446
-0.000285046
-0.0002887
-0.000304679
-0.000297796
-0.000326215
-0.000280602
-0.000342822
-0.000276105
-0.000324513
-0.000343948
-0.000252947
-0.000287703
-0.000257598
-0.000244417
-0.000244462
-0.000245627
-0.000253941
-0.000256496
-0.000266095
-0.00026443
-0.000274749
-0.000272248
-0.000269433
-0.00025407
-0.000254789
-0.00027286
-0.000289461
-0.000256607
-0.000151781
-0.000296295
-0.000315193
-0.000255697
-0.000249168
-0.000249694
-0.000244512
-0.000262469
-0.00026099
-0.000274692
-0.000273304
-0.000282224
-0.000272363
-0.000303572
-0.000276769
-0.000301545
-0.000386391
-0.000266699
-0.000359039
-0.000159615
-0.000169571
-0.000363151
-0.000269068
-0.000223915
-0.000250302
-0.000233077
-0.000246814
-0.000247
-0.000261493
-0.000264274
-0.000271289
-0.000270032
-0.000271588
-0.000266009
-0.000278631
-0.000354968
-0.000258694
-0.000166346
-0.000139754
1.06721e-05
-0.000131655
-0.000247621
-0.000274352
-0.000278778
-0.000248822
-0.000234807
-0.000241314
-0.000246239
-0.000265566
-0.000270988
-0.000280655
-0.000270026
-0.000305414
-0.000256187
-0.000284662
-0.000346049
-0.000241388
-0.000323292
-0.00022431
0.000273739
-0.000288043
-0.000244524
-0.000206019
-0.000266614
-0.000220026
-0.000228899
-0.000226424
-0.00023232
-0.000241448
-0.000246159
-0.000248771
-0.000244858
-0.000244281
-0.0002413
-0.000256524
-0.000250644
-0.000229613
-2.05633e-05
0.00039086
0.00161752
)
;

boundaryField
{
    movingWall
    {
        type            zeroGradient;
    }
    fixedWalls
    {
        type            zeroGradient;
    }
    frontAndBack
    {
        type            empty;
    }
}


// ************************************************************************* //
