/*--------------------------------*- C++ -*----------------------------------*\
| =========                 |                                                 |
| \\      /  F ield         | OpenFOAM: The Open Source CFD Toolbox           |
|  \\    /   O peration     | Version:  5.x                                   |
|   \\  /    A nd           | Web:      www.OpenFOAM.org                      |
|    \\/     M anipulation  |                                                 |
\*---------------------------------------------------------------------------*/
FoamFile
{
    version     2.0;
    format      ascii;
    class       surfaceScalarField;
    location    "6";
    object      phi;
}
// * * * * * * * * * * * * * * * * * * * * * * * * * * * * * * * * * * * * * //

dimensions      [0 3 -1 0 0 0 0];

internalField   nonuniform List<scalar> 
760
(
-5.23096e-08
5.23096e-08
-1.11971e-07
5.96615e-08
-1.85108e-07
7.31365e-08
-2.84492e-07
9.93841e-08
-4.34169e-07
1.49677e-07
-6.82254e-07
2.48086e-07
-1.11222e-06
4.29968e-07
-1.76509e-06
6.52873e-07
-2.39058e-06
6.25482e-07
-2.6871e-06
2.96526e-07
-2.85644e-06
1.69336e-07
-3.10157e-06
2.45131e-07
-3.20175e-06
1.00181e-07
-3.01153e-06
-1.90219e-07
-2.81849e-06
-1.93039e-07
-2.63211e-06
-1.86386e-07
-2.33018e-06
-3.01924e-07
-1.88527e-06
-4.44911e-07
-1.19534e-06
-6.89928e-07
-1.19534e-06
-4.89861e-08
1.01296e-07
-1.02831e-07
1.13507e-07
-1.63018e-07
1.33323e-07
-2.32384e-07
1.6875e-07
-3.10958e-07
2.28251e-07
-3.88474e-07
3.25601e-07
-4.34468e-07
4.75962e-07
-4.52469e-07
6.70873e-07
-6.33724e-07
8.06737e-07
-1.13726e-06
8.00066e-07
-1.67405e-06
7.06127e-07
-1.90417e-06
4.75242e-07
-1.95864e-06
1.54657e-07
-2.0165e-06
-1.32359e-07
-1.88799e-06
-3.21546e-07
-1.59467e-06
-4.79715e-07
-1.35749e-06
-5.391e-07
-1.15486e-06
-6.47543e-07
-7.8755e-07
-1.05724e-06
-1.98289e-06
-3.98744e-08
1.4117e-07
-8.26583e-08
1.56291e-07
-1.27215e-07
1.7788e-07
-1.72586e-07
2.14121e-07
-2.13625e-07
2.69291e-07
-2.37036e-07
3.49012e-07
-2.18604e-07
4.5753e-07
-1.37482e-07
5.89751e-07
-4.17365e-08
7.10992e-07
4.7084e-09
7.53621e-07
1.22875e-08
6.98548e-07
-4.11923e-08
5.28722e-07
-1.67438e-07
2.80902e-07
-2.90596e-07
-9.20131e-09
-3.34498e-07
-2.77643e-07
-3.49736e-07
-4.64477e-07
-3.80367e-07
-5.08468e-07
-3.90052e-07
-6.37858e-07
-3.73673e-07
-1.07362e-06
-2.35657e-06
-2.94094e-08
1.7058e-07
-6.02119e-08
1.87093e-07
-8.97899e-08
2.07458e-07
-1.15688e-07
2.40019e-07
-1.32662e-07
2.86265e-07
-1.31048e-07
3.47398e-07
-9.62943e-08
4.22776e-07
-1.1349e-08
5.04806e-07
1.22053e-07
5.7759e-07
2.70636e-07
6.05038e-07
3.98605e-07
5.70579e-07
4.67017e-07
4.6031e-07
4.68173e-07
2.79747e-07
4.25645e-07
3.33263e-08
3.01244e-07
-1.53242e-07
1.61351e-07
-3.24584e-07
4.83115e-08
-3.95429e-07
-5.08435e-08
-5.38703e-07
-8.87468e-08
-1.03571e-06
-2.44531e-06
-1.92502e-08
1.8983e-07
-3.91016e-08
2.06944e-07
-5.64191e-08
2.24776e-07
-6.84625e-08
2.52063e-07
-7.08059e-08
2.88608e-07
-5.65924e-08
3.33184e-07
-1.77805e-08
3.83965e-07
5.42093e-08
4.32816e-07
1.59674e-07
4.72126e-07
2.85746e-07
4.78966e-07
4.06198e-07
4.50127e-07
5.03899e-07
3.62609e-07
5.38644e-07
2.45002e-07
5.09167e-07
6.28025e-08
4.06123e-07
-5.01977e-08
2.98516e-07
-2.16977e-07
1.94716e-07
-2.91629e-07
7.68756e-08
-4.20863e-07
-3.26025e-08
-9.26234e-07
-2.47792e-06
-1.02163e-08
2.00046e-07
-2.08763e-08
2.17604e-07
-2.88702e-08
2.3277e-07
-3.16608e-08
2.54853e-07
-2.59948e-08
2.82942e-07
-7.12951e-09
3.14319e-07
2.87419e-08
3.48093e-07
8.55643e-08
3.75994e-07
1.61403e-07
3.96287e-07
2.51599e-07
3.8877e-07
3.36028e-07
3.65698e-07
4.07592e-07
2.91045e-07
4.28362e-07
2.24232e-07
4.20811e-07
7.03537e-08
3.52558e-07
1.80558e-08
2.7911e-07
-1.4353e-07
1.5803e-07
-1.70548e-07
8.65119e-08
-3.49345e-07
-3.20052e-08
-8.07717e-07
-2.50992e-06
-2.23205e-09
2.02278e-07
-5.36761e-09
2.2074e-07
-6.48724e-09
2.33889e-07
-3.62478e-09
2.51991e-07
6.03424e-09
2.73283e-07
2.476e-08
2.95593e-07
5.5067e-08
3.17786e-07
9.93546e-08
3.31706e-07
1.53541e-07
3.421e-07
2.16883e-07
3.25428e-07
2.72198e-07
3.10383e-07
3.24196e-07
2.39046e-07
3.38561e-07
2.09867e-07
3.40916e-07
6.79984e-08
2.87152e-07
7.18204e-08
2.40178e-07
-9.65563e-08
1.52645e-07
-8.30144e-08
8.9022e-08
-2.85722e-07
-7.88951e-09
-7.10805e-07
-2.51781e-06
4.54903e-09
1.97729e-07
7.20281e-09
2.18086e-07
1.06609e-08
2.30431e-07
1.66926e-08
2.45959e-07
2.73312e-08
2.62644e-07
4.47702e-08
2.78154e-07
6.94654e-08
2.93091e-07
1.03023e-07
2.98149e-07
1.4141e-07
3.03713e-07
1.85031e-07
2.81807e-07
2.20511e-07
2.74904e-07
2.5261e-07
2.06947e-07
2.58273e-07
2.04204e-07
2.53845e-07
7.24265e-08
2.14209e-07
1.11456e-07
1.79718e-07
-6.20653e-08
1.07505e-07
-1.08011e-08
5.53428e-08
-2.3356e-07
3.1789e-09
-6.58641e-07
-2.51463e-06
1.2365e-08
1.85364e-07
2.07596e-08
2.09692e-07
2.7835e-08
2.23356e-07
3.42055e-08
2.39589e-07
4.36013e-08
2.53249e-07
5.67408e-08
2.65015e-07
7.57305e-08
2.74101e-07
1.00503e-07
2.73376e-07
1.28451e-07
2.75765e-07
1.59672e-07
2.50587e-07
1.85013e-07
2.49562e-07
2.09466e-07
1.82494e-07
2.15495e-07
1.98175e-07
2.14411e-07
7.35105e-08
1.86556e-07
1.39312e-07
1.51674e-07
-2.7184e-08
9.62723e-08
4.46009e-08
6.81921e-08
-2.0548e-07
6.17074e-08
-6.52157e-07
-2.45293e-06
2.01045e-08
1.6526e-07
2.91288e-08
2.00667e-07
3.58008e-08
2.16684e-07
4.30444e-08
2.32345e-07
5.18321e-08
2.44461e-07
6.47782e-08
2.52068e-07
7.97035e-08
2.59176e-07
9.75089e-08
2.55571e-07
1.16483e-07
2.56791e-07
1.35368e-07
2.31702e-07
1.50688e-07
2.34242e-07
1.58927e-07
1.74254e-07
1.59572e-07
1.9753e-07
1.45619e-07
8.74637e-08
1.26704e-07
1.58227e-07
1.04265e-07
-4.74539e-09
6.09173e-08
8.79487e-08
-2.36733e-09
-1.42195e-07
-8.11036e-08
-5.7342e-07
-2.53403e-06
3.58041e-08
1.29455e-07
5.93004e-08
1.77171e-07
6.79432e-08
2.08041e-07
6.69465e-08
2.33342e-07
6.74517e-08
2.43956e-07
6.75993e-08
2.51921e-07
7.47152e-08
2.5206e-07
8.50154e-08
2.45271e-07
1.00309e-07
2.41498e-07
1.15256e-07
2.16754e-07
1.31554e-07
2.17944e-07
1.42566e-07
1.63242e-07
1.52062e-07
1.88035e-07
1.47646e-07
9.18793e-08
1.37478e-07
1.68395e-07
8.98642e-08
4.28683e-08
4.78232e-08
1.2999e-07
-1.78607e-08
-7.65116e-08
-3.52603e-10
-5.90929e-07
-2.53438e-06
5.75277e-08
7.19277e-08
5.15822e-08
1.83117e-07
4.71212e-08
2.12502e-07
5.227e-08
2.28193e-07
5.96178e-08
2.36608e-07
7.16171e-08
2.39922e-07
8.00613e-08
2.43616e-07
8.70849e-08
2.38247e-07
9.54005e-08
2.33182e-07
9.90508e-08
2.13104e-07
1.05343e-07
2.11652e-07
9.76863e-08
1.70899e-07
9.89738e-08
1.86747e-07
6.82743e-08
1.22579e-07
7.05529e-08
1.66117e-07
2.68213e-08
8.65999e-08
3.86841e-08
1.18127e-07
-3.50102e-09
-3.43264e-08
9.58615e-09
-6.04016e-07
-2.5248e-06
1.05892e-07
-3.39647e-08
1.56879e-07
1.3213e-07
1.54728e-07
2.14652e-07
1.13256e-07
2.69665e-07
8.50681e-08
2.64796e-07
5.81072e-08
2.66882e-07
5.30498e-08
2.48673e-07
5.38672e-08
2.3743e-07
6.55887e-08
2.2146e-07
7.18252e-08
2.06867e-07
9.00185e-08
1.93458e-07
9.1327e-08
1.69591e-07
1.17167e-07
1.60907e-07
1.10497e-07
1.29249e-07
1.29412e-07
1.47202e-07
1.00708e-07
1.15304e-07
7.47067e-08
1.44128e-07
-2.86834e-08
6.90637e-08
-5.70882e-08
-5.75611e-07
-2.58188e-06
2.26022e-07
-2.59986e-07
9.58518e-08
2.623e-07
6.81465e-08
2.42358e-07
8.96228e-08
2.48189e-07
9.59257e-08
2.58493e-07
1.01511e-07
2.61297e-07
9.76198e-08
2.52565e-07
9.11876e-08
2.43862e-07
9.04685e-08
2.2218e-07
8.27521e-08
2.14584e-07
8.28214e-08
1.93389e-07
6.65918e-08
1.8582e-07
5.95474e-08
1.67951e-07
2.20963e-08
1.667e-07
8.98888e-09
1.60309e-07
-7.40432e-08
1.98336e-07
3.18235e-08
3.82612e-08
5.45568e-08
4.63304e-08
3.87088e-08
-5.59763e-07
-2.54318e-06
3.15442e-07
-5.75428e-07
2.71103e-07
3.06639e-07
1.28061e-07
3.85399e-07
-3.20473e-08
4.08298e-07
-8.29714e-08
3.09417e-07
-8.66625e-08
2.64988e-07
-6.23804e-08
2.28283e-07
-4.09766e-08
2.22458e-07
-1.47296e-08
1.95933e-07
-3.83239e-09
2.03686e-07
1.95195e-08
1.70037e-07
1.46739e-08
1.90666e-07
5.93702e-08
1.23255e-07
1.81622e-08
2.07908e-07
1.29794e-07
4.86774e-08
1.3687e-07
1.9126e-07
9.78326e-08
7.72986e-08
-2.74347e-09
1.46907e-07
-2.8028e-08
-5.34478e-07
-2.5712e-06
1.01725e-07
-6.77153e-07
2.33445e-07
1.74919e-07
3.74643e-07
2.442e-07
4.05482e-07
3.77459e-07
3.89321e-07
3.25579e-07
3.22492e-07
3.31816e-07
2.89129e-07
2.61646e-07
2.45547e-07
2.6604e-07
2.20585e-07
2.20895e-07
1.87015e-07
2.37257e-07
1.79422e-07
1.7763e-07
1.50386e-07
2.19702e-07
1.67982e-07
1.05659e-07
1.2863e-07
2.47261e-07
3.42509e-08
1.43057e-07
-5.17677e-08
2.77279e-07
6.97537e-08
-4.42228e-08
4.34759e-08
1.73184e-07
5.24396e-08
-5.43442e-07
-2.51876e-06
-2.71473e-07
-4.0568e-07
-5.84541e-07
4.87988e-07
-4.59191e-07
1.1885e-07
-3.73084e-07
2.91351e-07
-3.81939e-07
3.34434e-07
-3.19193e-07
2.69071e-07
-3.31806e-07
2.7426e-07
-3.00778e-07
2.35012e-07
-2.93082e-07
2.13198e-07
-2.69363e-07
2.13538e-07
-2.49206e-07
1.57473e-07
-2.22124e-07
1.9262e-07
-2.22204e-07
1.05739e-07
-2.35107e-07
2.60164e-07
-1.16649e-07
2.45982e-08
-2.21551e-07
3.82181e-07
1.01148e-07
-3.66922e-07
1.90893e-07
8.34388e-08
4.371e-08
-3.96259e-07
-2.47505e-06
2.48745e-08
-4.30555e-07
3.95266e-07
1.17596e-07
2.53474e-07
2.60642e-07
3.40291e-07
2.04534e-07
4.00539e-07
2.74186e-07
4.8177e-07
1.87839e-07
5.43105e-07
2.12925e-07
5.93414e-07
1.84703e-07
6.4181e-07
1.64802e-07
6.46372e-07
2.08976e-07
6.73998e-07
1.29847e-07
6.43666e-07
2.22951e-07
6.35275e-07
1.14131e-07
5.4078e-07
3.54658e-07
6.47078e-07
-8.17001e-08
5.94782e-07
4.34477e-07
3.43851e-07
-1.15991e-07
1.84957e-07
2.42334e-07
2.52449e-07
-4.63752e-07
-2.2226e-06
-7.97024e-07
3.6647e-07
-9.36396e-07
2.56968e-07
-9.36354e-07
2.606e-07
-9.00655e-07
1.68835e-07
-8.07754e-07
1.81285e-07
-7.52879e-07
1.32964e-07
-6.98571e-07
1.58616e-07
-6.51288e-07
1.3742e-07
-6.10291e-07
1.23805e-07
-5.36183e-07
1.34869e-07
-4.94563e-07
8.8227e-08
-3.92258e-07
1.20646e-07
-3.51589e-07
7.34627e-08
-1.35426e-07
1.38495e-07
-2.80006e-07
6.28798e-08
1.11479e-08
1.43323e-07
-7.07984e-08
-3.40449e-08
2.01133e-07
-2.95975e-08
6.70848e-07
-9.33467e-07
-1.55176e-06
3.6647e-07
6.23438e-07
8.84038e-07
1.05287e-06
1.23416e-06
1.36712e-06
1.52574e-06
1.66316e-06
1.78696e-06
1.92183e-06
2.01006e-06
2.1307e-06
2.20417e-06
2.34266e-06
2.40554e-06
2.54887e-06
2.51482e-06
2.48522e-06
1.55176e-06
)
;

boundaryField
{
    movingWall
    {
        type            calculated;
        value           uniform 0;
    }
    fixedWalls
    {
        type            calculated;
        value           uniform 0;
    }
    frontAndBack
    {
        type            empty;
        value           nonuniform 0();
    }
}


// ************************************************************************* //
