/*--------------------------------*- C++ -*----------------------------------*\
| =========                 |                                                 |
| \\      /  F ield         | OpenFOAM: The Open Source CFD Toolbox           |
|  \\    /   O peration     | Version:  5.x                                   |
|   \\  /    A nd           | Web:      www.OpenFOAM.org                      |
|    \\/     M anipulation  |                                                 |
\*---------------------------------------------------------------------------*/
FoamFile
{
    version     2.0;
    format      ascii;
    class       volVectorField;
    location    "6";
    object      U;
}
// * * * * * * * * * * * * * * * * * * * * * * * * * * * * * * * * * * * * * //

dimensions      [0 1 -1 0 0 0 0];

internalField   nonuniform List<vector> 
400
(
(-0.000507506 0.000520533 0)
(-0.00161157 0.000596548 0)
(-0.00291497 0.000743359 0)
(-0.00457477 0.0010473 0)
(-0.00692229 0.0016839 0)
(-0.0104962 0.00309168 0)
(-0.0162998 0.00596557 0)
(-0.026688 0.00862409 0)
(-0.0430147 0.00304293 0)
(-0.0542603 -0.00827513 0)
(-0.0552951 -0.00580553 0)
(-0.0596547 0.00701251 0)
(-0.0662849 0.00570039 0)
(-0.0632928 -0.00392508 0)
(-0.0573969 -0.00249261 0)
(-0.0544813 0.000761379 0)
(-0.0500097 -0.00238003 0)
(-0.0435657 -0.00603766 0)
(-0.0339805 -0.00961485 0)
(-0.00916622 -0.0160702 0)
(-0.00047678 0.00154476 0)
(-0.00149674 0.00174609 0)
(-0.00262954 0.00209804 0)
(-0.00390238 0.00276389 0)
(-0.00535471 0.00397852 0)
(-0.00689887 0.00618533 0)
(-0.00811553 0.0099949 0)
(-0.00844979 0.0153536 0)
(-0.0101321 0.0193463 0)
(-0.0164989 0.0186051 0)
(-0.0277319 0.0128161 0)
(-0.0379769 0.00368778 0)
(-0.0405824 -0.00241562 0)
(-0.0398767 -0.00493464 0)
(-0.0393356 -0.00636485 0)
(-0.0342209 -0.00918027 0)
(-0.0290035 -0.0110876 0)
(-0.0259527 -0.0137872 0)
(-0.0220178 -0.0209218 0)
(-0.00627129 -0.0362259 0)
(-0.000388081 0.00244589 0)
(-0.00121024 0.00272375 0)
(-0.00208183 0.00314838 0)
(-0.00297326 0.00388113 0)
(-0.00384352 0.00504468 0)
(-0.00452719 0.00682002 0)
(-0.00467853 0.0094013 0)
(-0.0037175 0.01264 0)
(-0.00171617 0.015143 0)
(-4.26467e-05 0.0155779 0)
(0.00028714 0.0152348 0)
(-4.83993e-05 0.0131036 0)
(-0.00177913 0.00780202 0)
(-0.00437925 0.000149864 0)
(-0.00663594 -0.00581182 0)
(-0.00617411 -0.00969317 0)
(-0.00748321 -0.00990873 0)
(-0.00764056 -0.0113598 0)
(-0.00907965 -0.0202314 0)
(-0.00407297 -0.0439349 0)
(-0.000285104 0.00313809 0)
(-0.000886908 0.00345728 0)
(-0.0014943 0.00388307 0)
(-0.00205074 0.00458086 0)
(-0.00249559 0.00560525 0)
(-0.00268634 0.00701673 0)
(-0.00239831 0.00883274 0)
(-0.00128522 0.0109077 0)
(0.000878539 0.0127456 0)
(0.00385914 0.0135539 0)
(0.00663279 0.0129465 0)
(0.00881917 0.0102095 0)
(0.00933076 0.00507326 0)
(0.00929449 -0.000405689 0)
(0.00725767 -0.00452673 0)
(0.00556632 -0.0078568 0)
(0.000912473 -0.00950895 0)
(0.00132459 -0.013081 0)
(-0.00384398 -0.0224445 0)
(0.0010644 -0.0484227 0)
(-0.000184572 0.00362418 0)
(-0.00057926 0.00396128 0)
(-0.000958606 0.00434553 0)
(-0.00125825 0.00494666 0)
(-0.00142069 0.00577729 0)
(-0.00133007 0.0068337 0)
(-0.000856313 0.00808843 0)
(0.000208876 0.00937126 0)
(0.00193712 0.0104485 0)
(0.00434321 0.0107847 0)
(0.00680204 0.0101612 0)
(0.00923053 0.00815834 0)
(0.0104043 0.00529391 0)
(0.0109539 0.00144024 0)
(0.00903596 -0.0015482 0)
(0.00799259 -0.00496979 0)
(0.00339089 -0.00652956 0)
(0.0049902 -0.00828063 0)
(-0.00229097 -0.0173879 0)
(0.00121259 -0.0476848 0)
(-9.47919e-05 0.00391737 0)
(-0.000309564 0.00426471 0)
(-0.000506109 0.00459538 0)
(-0.000620609 0.00509228 0)
(-0.000611464 0.00573803 0)
(-0.000382042 0.00649887 0)
(0.000120665 0.00733739 0)
(0.00104446 0.00808829 0)
(0.00233304 0.00864084 0)
(0.00407728 0.00858915 0)
(0.00576057 0.00800351 0)
(0.00760157 0.00635282 0)
(0.00829249 0.00450627 0)
(0.00912974 0.00128686 0)
(0.00726848 -0.000350644 0)
(0.007474 -0.00347326 0)
(0.00315608 -0.00461579 0)
(0.00372392 -0.00807223 0)
(-0.000700626 -0.0187455 0)
(-0.000345095 -0.0510753 0)
(-1.39608e-05 0.00404188 0)
(-7.58751e-05 0.00439812 0)
(-0.000128899 0.00467842 0)
(-0.000116922 0.00507071 0)
(-1.70743e-05 0.0055634 0)
(0.000265276 0.00608859 0)
(0.000723536 0.00664607 0)
(0.00149865 0.0070447 0)
(0.00242256 0.00732708 0)
(0.00371729 0.00704448 0)
(0.004778 0.0066233 0)
(0.006181 0.0051093 0)
(0.00645712 0.00416595 0)
(0.00741714 0.00126525 0)
(0.00571286 0.000935282 0)
(0.00647177 -0.00248886 0)
(0.00240367 -0.00255696 0)
(0.00446202 -0.00605328 0)
(-0.00157427 -0.0144336 0)
(0.00144691 -0.0472388 0)
(5.69524e-05 0.00401392 0)
(0.000122862 0.00440297 0)
(0.0001687 0.00466243 0)
(0.000264661 0.00502766 0)
(0.000408292 0.00540418 0)
(0.000702159 0.00580431 0)
(0.00107712 0.00615233 0)
(0.00172436 0.00633732 0)
(0.00233551 0.00647034 0)
(0.00335511 0.00606643 0)
(0.00388006 0.00582812 0)
(0.0050925 0.00443827 0)
(0.00467887 0.00411529 0)
(0.00607162 0.00156733 0)
(0.00352964 0.00193042 0)
(0.00571025 -0.0012222 0)
(0.000769563 -0.000585451 0)
(0.00422136 -0.00514958 0)
(-0.00254565 -0.0134755 0)
(0.00276082 -0.0547204 0)
(0.000144958 0.00386917 0)
(0.000339955 0.00431006 0)
(0.00049193 0.00454021 0)
(0.000622155 0.00477414 0)
(0.00075142 0.0050694 0)
(0.00100698 0.00526808 0)
(0.00124655 0.00554132 0)
(0.00180609 0.00555253 0)
(0.00215017 0.00566324 0)
(0.00304762 0.00516678 0)
(0.00318378 0.0051052 0)
(0.00439476 0.00368266 0)
(0.00368741 0.00388102 0)
(0.00529714 0.00111173 0)
(0.00278451 0.00235195 0)
(0.0053041 -0.00144391 0)
(6.90896e-05 9.6137e-05 0)
(0.00445348 -0.00455851 0)
(-0.00235878 -0.0135861 0)
(0.00539876 -0.0465437 0)
(0.000244728 0.00349427 0)
(0.000531897 0.00401533 0)
(0.000636983 0.0044159 0)
(0.000795607 0.00488896 0)
(0.000914737 0.00516272 0)
(0.0011838 0.00547379 0)
(0.00137294 0.00556379 0)
(0.0018543 0.0055377 0)
(0.00196893 0.00550914 0)
(0.00278087 0.00499969 0)
(0.00246213 0.00499081 0)
(0.00378768 0.0037725 0)
(0.00223277 0.00414578 0)
(0.00459249 0.00205284 0)
(0.000690764 0.00328571 0)
(0.00499349 0.000513712 0)
(-0.00148553 0.00185007 0)
(0.00450033 -0.00306331 0)
(-0.00472691 -0.0110607 0)
(0.00202831 -0.0492526 0)
(0.000414137 0.00316241 0)
(0.000981642 0.00414878 0)
(0.00134409 0.00430626 0)
(0.00137002 0.00435661 0)
(0.00131646 0.00451789 0)
(0.0013913 0.00445206 0)
(0.00129306 0.00464784 0)
(0.00172665 0.00450418 0)
(0.00160844 0.00459296 0)
(0.0024934 0.00407625 0)
(0.0019644 0.00419152 0)
(0.00349999 0.0029603 0)
(0.00192098 0.00352847 0)
(0.00451614 0.00115767 0)
(0.000955089 0.00282291 0)
(0.00506062 -0.000785352 0)
(-0.00196968 0.00152102 0)
(0.00436242 -0.00321024 0)
(-0.00543092 -0.0133965 0)
(0.00555606 -0.0546115 0)
(0.000906906 0.00193351 0)
(0.00127459 0.00275064 0)
(0.000839287 0.00392768 0)
(0.00102008 0.00505622 0)
(0.00107392 0.00538991 0)
(0.00135723 0.0058559 0)
(0.0014478 0.00565822 0)
(0.00182268 0.00555645 0)
(0.00156393 0.00529037 0)
(0.00237335 0.00483541 0)
(0.00141415 0.00474489 0)
(0.00302446 0.00383303 0)
(0.000599854 0.00424305 0)
(0.00371949 0.00282194 0)
(-0.00136094 0.0041863 0)
(0.0046523 0.00277947 0)
(-0.00392498 0.00360752 0)
(0.00595166 0.000556746 0)
(-0.00626931 -0.00975495 0)
(0.00689662 -0.0457187 0)
(0.00143754 0.00102629 0)
(0.00265106 0.00490732 0)
(0.0034984 0.00476638 0)
(0.00271186 0.00419243 0)
(0.00188371 0.00393387 0)
(0.00146801 0.00347005 0)
(0.000889933 0.00381675 0)
(0.00125568 0.00366448 0)
(0.000852293 0.00376141 0)
(0.00184961 0.00338905 0)
(0.000902651 0.00344626 0)
(0.00287125 0.0026801 0)
(0.000559331 0.00290778 0)
(0.00443841 0.00170425 0)
(-0.000384659 0.0020743 0)
(0.0060147 0.000263602 0)
(-0.002448 0.000976953 0)
(0.0059315 -0.00218626 0)
(-0.00744123 -0.0143928 0)
(0.00562058 -0.0553241 0)
(0.00509453 -0.00226761 0)
(0.0033875 0.000173571 0)
(0.000719353 0.00363329 0)
(0.00186275 0.00633156 0)
(0.00185141 0.00688441 0)
(0.00203394 0.00757875 0)
(0.00193707 0.00646002 0)
(0.00207252 0.00621176 0)
(0.00145341 0.0054158 0)
(0.00229885 0.00523625 0)
(0.000847042 0.00459101 0)
(0.00265975 0.00446679 0)
(-0.000202763 0.00385529 0)
(0.00281065 0.00387083 0)
(-0.00208235 0.00427315 0)
(0.00257026 0.0048479 0)
(-0.00597224 0.00513688 0)
(0.00756836 0.0052248 0)
(-0.00584174 -0.00797003 0)
(0.00772534 -0.0485901 0)
(0.00482592 -0.0074561 0)
(0.00693403 0.0108766 0)
(0.00457805 0.00629547 0)
(0.000407007 0.00412077 0)
(-0.00178371 0.00318434 0)
(-0.0015814 0.00238242 0)
(-0.00173943 0.00322418 0)
(-0.000850298 0.00307221 0)
(-0.000741846 0.00309886 0)
(0.000139591 0.00292888 0)
(-0.000299248 0.00281786 0)
(0.00110034 0.00253364 0)
(-0.000536649 0.00253061 0)
(0.00304188 0.00231807 0)
(-0.00243043 0.00158061 0)
(0.00801184 0.00236419 0)
(-0.00308146 -0.00392074 0)
(0.00759166 -0.00355407 0)
(-0.00781975 -0.0154626 0)
(0.00702797 -0.0537878 0)
(-0.00117295 -0.0177248 0)
(0.00471171 0.000259548 0)
(0.0056775 0.00961346 0)
(0.00811766 0.0111901 0)
(0.00891006 0.00902932 0)
(0.00655827 0.00871329 0)
(0.00607228 0.00629551 0)
(0.00565789 0.00633805 0)
(0.00393052 0.00510929 0)
(0.00511602 0.00568477 0)
(0.00211387 0.00430186 0)
(0.00534551 0.00556938 0)
(0.000398328 0.00263296 0)
(0.00654159 0.00657407 0)
(-0.00158999 0.000675492 0)
(0.00309821 0.0060788 0)
(-0.00518879 0.0076889 0)
(0.00781571 0.0096843 0)
(-0.00627756 -0.00448045 0)
(0.00866592 -0.0504728 0)
(-0.00320565 -0.00678973 0)
(-0.00885981 0.0076915 0)
(-0.0137398 -0.000696776 0)
(-0.00354804 0.00464535 0)
(-0.0117973 0.0043626 0)
(-0.00387558 0.00403729 0)
(-0.00844817 0.00393834 0)
(-0.00535344 0.00372527 0)
(-0.00623382 0.00340261 0)
(-0.00588365 0.00328429 0)
(-0.00454716 0.00250892 0)
(-0.00578485 0.00269454 0)
(-0.00259657 0.00146711 0)
(-0.00694334 0.00256029 0)
(-0.00175372 0.00468275 0)
(-0.00275625 0.00433278 0)
(-0.00718198 -0.0100961 0)
(0.012145 -0.00334308 0)
(-0.00589657 -0.0193785 0)
(0.00830223 -0.051367 0)
(-0.0105085 -0.0108485 0)
(0.0110177 0.0101319 0)
(0.00642354 0.00607187 0)
(0.00395881 0.00773472 0)
(0.00877412 0.00878188 0)
(0.00801187 0.00719741 0)
(0.0106172 0.00693869 0)
(0.0116165 0.0061417 0)
(0.0116347 0.00534058 0)
(0.0143856 0.0056827 0)
(0.011118 0.00402645 0)
(0.0162524 0.00541383 0)
(0.00908593 0.00302849 0)
(0.0169324 0.00855892 0)
(0.00523271 -0.00364177 0)
(0.0189208 0.0102446 0)
(0.0063185 -0.0029375 0)
(0.00800825 0.00744931 0)
(-0.00143951 0.00569873 0)
(0.0127088 -0.0470134 0)
(-0.020616 -0.00490273 0)
(-0.013059 -0.00459142 0)
(-0.0232802 0.00355109 0)
(-0.0146788 -0.000339127 0)
(-0.0204106 0.00182547 0)
(-0.0115776 1.05429e-05 0)
(-0.0191455 0.00141974 0)
(-0.00836538 0.000915721 0)
(-0.0182231 0.000926432 0)
(-0.00579935 0.00222999 0)
(-0.0159672 0.000807568 0)
(-0.00305391 0.00308674 0)
(-0.0136368 0.000993517 0)
(0.000633695 0.00511194 0)
(-0.00640016 0.000125297 0)
(-0.00585578 0.00660651 0)
(0.00658099 -0.00219534 0)
(-0.0101307 0.000383351 0)
(0.0172353 -0.0272994 0)
(0.0130633 -0.0485144 0)
(0.00205413 0.0179619 0)
(0.013207 0.0141134 0)
(0.0127939 0.00772224 0)
(0.0206631 0.0075992 0)
(0.023313 0.00587661 0)
(0.0247394 0.00549361 0)
(0.03069 0.0052149 0)
(0.029877 0.00486413 0)
(0.0364812 0.00438359 0)
(0.0355626 0.00355529 0)
(0.0407073 0.00307639 0)
(0.0402763 0.00208992 0)
(0.0442722 0.00242355 0)
(0.0447286 0.000673088 0)
(0.0478115 0.00266962 0)
(0.0494689 -0.000147949 0)
(0.0494667 0.000899983 0)
(0.0507311 -0.00089673 0)
(0.0431999 -0.00509095 0)
(0.0268136 -0.00489487 0)
)
;

boundaryField
{
    movingWall
    {
        type            fixedValue;
        value           uniform (1 0 0);
    }
    fixedWalls
    {
        type            noSlip;
    }
    frontAndBack
    {
        type            empty;
    }
}


// ************************************************************************* //
