/*--------------------------------*- C++ -*----------------------------------*\
| =========                 |                                                 |
| \\      /  F ield         | OpenFOAM: The Open Source CFD Toolbox           |
|  \\    /   O peration     | Version:  5.x                                   |
|   \\  /    A nd           | Web:      www.OpenFOAM.org                      |
|    \\/     M anipulation  |                                                 |
\*---------------------------------------------------------------------------*/
FoamFile
{
    version     2.0;
    format      ascii;
    class       volScalarField;
    location    "16.7";
    object      p;
}
// * * * * * * * * * * * * * * * * * * * * * * * * * * * * * * * * * * * * * //

dimensions      [0 2 -2 0 0 0 0];

internalField   nonuniform List<scalar> 
400
(
2.25699e-10
-0.000691904
-0.00121273
-0.00153307
-0.00166697
-0.00173387
-0.00174181
-0.00173948
-0.00173595
-0.00173592
-0.00173231
-0.00174167
-0.00174282
-0.00175295
-0.00174215
-0.0016566
-0.00145614
-0.00110267
-0.00068873
0.000803371
-0.000744085
-0.00122827
-0.00154453
-0.00170178
-0.00175765
-0.00176899
-0.00175717
-0.00175091
-0.00173925
-0.00173851
-0.0017428
-0.00174498
-0.00178144
-0.00178424
-0.00181395
-0.00177598
-0.00174263
-0.00162665
-0.00143926
-0.000398317
-0.00122978
-0.00155029
-0.00168581
-0.00176213
-0.00176217
-0.00176333
-0.00175389
-0.00174118
-0.00173994
-0.00173788
-0.00174822
-0.00175155
-0.00176786
-0.00176272
-0.00178749
-0.00171968
-0.00176597
-0.00165726
-0.00157387
-0.00108257
-0.00149272
-0.00168923
-0.00173396
-0.00175849
-0.00175836
-0.00175582
-0.00175328
-0.00175111
-0.00175171
-0.00175213
-0.00175884
-0.00175824
-0.00177892
-0.00177474
-0.00179714
-0.00176603
-0.00178403
-0.00167624
-0.00170554
-0.00147235
-0.00161654
-0.00172478
-0.00172771
-0.00174563
-0.0017443
-0.0017468
-0.00174658
-0.00174601
-0.0017503
-0.00174775
-0.00175629
-0.00175328
-0.00176273
-0.00177035
-0.00179917
-0.00176499
-0.00180697
-0.00171271
-0.00173044
-0.00161219
-0.00166245
-0.00170496
-0.0017212
-0.00172632
-0.00173604
-0.00174007
-0.00174841
-0.00175295
-0.00176019
-0.00176104
-0.0017682
-0.00177034
-0.00176609
-0.00176417
-0.00180724
-0.00177539
-0.00182222
-0.00174457
-0.00177313
-0.00170651
-0.00167108
-0.00169519
-0.00171134
-0.00172166
-0.0017297
-0.00173835
-0.00174769
-0.00175465
-0.0017615
-0.00175624
-0.00175082
-0.00175317
-0.0017481
-0.00178621
-0.00179556
-0.00178176
-0.00182294
-0.00176888
-0.00177521
-0.00173858
-0.0016735
-0.00168064
-0.00169046
-0.00170303
-0.00171848
-0.00172758
-0.00175007
-0.00176316
-0.00177398
-0.00177243
-0.00179041
-0.00179983
-0.00176396
-0.0017757
-0.00181425
-0.00179597
-0.0018082
-0.00179086
-0.00179995
-0.00178418
-0.00167421
-0.001681
-0.0017027
-0.00170726
-0.00172398
-0.00173418
-0.00175914
-0.00177739
-0.00179642
-0.00178813
-0.0017906
-0.00179238
-0.0018424
-0.0018616
-0.00185708
-0.00184183
-0.00184719
-0.00182473
-0.00182314
-0.00186057
-0.00166327
-0.0016685
-0.00166828
-0.00168586
-0.00170025
-0.00171218
-0.00175195
-0.00177032
-0.00180509
-0.00184175
-0.00185105
-0.00183818
-0.00187927
-0.00191235
-0.0018657
-0.00185016
-0.00189029
-0.00190454
-0.00191847
-0.00194005
-0.00165025
-0.00164463
-0.00167341
-0.00167542
-0.00170796
-0.00170729
-0.0017732
-0.00181052
-0.0018489
-0.00189146
-0.00195319
-0.00197921
-0.00198275
-0.00185801
-0.00192155
-0.0018756
-0.00199215
-0.00195385
-0.00193964
-0.00185236
-0.00163387
-0.00165455
-0.00164801
-0.00165723
-0.00170438
-0.00169798
-0.00174543
-0.0018065
-0.0018576
-0.00191054
-0.00192856
-0.00203829
-0.00194945
-0.00175581
-0.00183421
-0.00176503
-0.00184254
-0.00175321
-0.00174634
-0.00169819
-0.00162178
-0.00161964
-0.00163885
-0.00163776
-0.00170803
-0.0016622
-0.00172866
-0.00178318
-0.00187343
-0.00196146
-0.0019295
-0.0020384
-0.00192314
-0.00179013
-0.00186194
-0.0017851
-0.00180566
-0.00168372
-0.00171603
-0.00165423
-0.00159434
-0.00159607
-0.00163678
-0.00160991
-0.00169408
-0.00165689
-0.0017065
-0.00178304
-0.00187887
-0.00206462
-0.00196482
-0.00203126
-0.00192067
-0.00181334
-0.00178542
-0.00174002
-0.00180089
-0.0016139
-0.00167149
-0.0015941
-0.00157584
-0.00158105
-0.00163924
-0.00160143
-0.00166815
-0.00162484
-0.00168244
-0.00172738
-0.00183383
-0.00200989
-0.00195159
-0.00198371
-0.00187538
-0.00177591
-0.00184178
-0.00178833
-0.00182955
-0.00154897
-0.0015661
-0.00156048
-0.00152393
-0.00155598
-0.00159766
-0.00156911
-0.00166046
-0.00159619
-0.00163612
-0.00173583
-0.00173902
-0.00189051
-0.00186311
-0.00185808
-0.0018077
-0.00164503
-0.00179146
-0.00159801
-0.00161771
-0.00157076
-0.00149993
-0.00149096
-0.00141539
-0.00148715
-0.00160109
-0.00159456
-0.00160834
-0.00161702
-0.00163625
-0.0017242
-0.00180655
-0.00185207
-0.00184511
-0.00178122
-0.00163539
-0.0019683
-0.00183488
-0.00180701
-0.00176395
-0.0016636
-0.00172565
-0.00133881
-0.0012374
-0.00142608
-0.00150144
-0.00154289
-0.00161255
-0.00161956
-0.00162959
-0.00176315
-0.00177003
-0.00182379
-0.00182693
-0.00194573
-0.00195166
-0.00183045
-0.00159765
-0.00157028
-0.00166004
-0.0014511
-0.00125505
-0.00108188
-0.000965102
-0.00118536
-0.00140409
-0.00146914
-0.00150858
-0.00150097
-0.00155047
-0.00177287
-0.00188099
-0.00198367
-0.00205417
-0.00207425
-0.00205358
-0.00149244
-0.00149761
-0.00164522
-0.00161429
-0.00179834
-0.00165882
-0.000635195
-0.000680867
-0.000935628
-0.00122978
-0.00143915
-0.00155964
-0.00164505
-0.00166819
-0.00174068
-0.00183479
-0.0019044
-0.00191119
-0.00179545
-0.00161765
-0.00149407
-0.00149653
-0.00157347
-0.0015812
-0.00125839
-0.000559619
0.00140418
)
;

boundaryField
{
    movingWall
    {
        type            zeroGradient;
    }
    fixedWalls
    {
        type            zeroGradient;
    }
    frontAndBack
    {
        type            empty;
    }
}


// ************************************************************************* //
