/*--------------------------------*- C++ -*----------------------------------*\
| =========                 |                                                 |
| \\      /  F ield         | OpenFOAM: The Open Source CFD Toolbox           |
|  \\    /   O peration     | Version:  5.x                                   |
|   \\  /    A nd           | Web:      www.OpenFOAM.org                      |
|    \\/     M anipulation  |                                                 |
\*---------------------------------------------------------------------------*/
FoamFile
{
    version     2.0;
    format      ascii;
    class       volScalarField;
    location    "2.6";
    object      p;
}
// * * * * * * * * * * * * * * * * * * * * * * * * * * * * * * * * * * * * * //

dimensions      [0 2 -2 0 0 0 0];

internalField   nonuniform List<scalar> 
400
(
2.15719e-10
4.01718e-07
1.2548e-06
2.57316e-06
4.38958e-06
6.74428e-06
9.68225e-06
1.32492e-05
1.74856e-05
2.24193e-05
2.80546e-05
3.43603e-05
4.12549e-05
4.86e-05
5.61518e-05
6.35758e-05
7.04438e-05
7.62563e-05
8.05065e-05
8.27124e-05
-4.52088e-07
-6.20262e-08
7.69515e-07
2.05709e-06
3.83572e-06
6.14866e-06
9.04514e-06
1.25765e-05
1.67909e-05
2.17254e-05
2.73963e-05
3.3785e-05
4.08209e-05
4.8385e-05
5.62421e-05
6.40526e-05
7.13589e-05
7.76137e-05
8.22418e-05
8.46712e-05
-1.38658e-06
-1.01994e-06
-2.32476e-07
9.91919e-07
2.69258e-06
4.9189e-06
7.7286e-06
1.11843e-05
1.5349e-05
2.02794e-05
2.60158e-05
3.25688e-05
3.98986e-05
4.78988e-05
5.63717e-05
6.49764e-05
7.32142e-05
8.04348e-05
8.59066e-05
8.88552e-05
-2.77629e-06
-2.44645e-06
-1.72842e-06
-6.03888e-07
9.72652e-07
3.05895e-06
5.72447e-06
9.04801e-06
1.31142e-05
1.80082e-05
2.38074e-05
3.0568e-05
3.83088e-05
4.69354e-05
5.63401e-05
6.61881e-05
7.59373e-05
8.47837e-05
9.17283e-05
9.56531e-05
-4.58804e-06
-4.31027e-06
-3.69106e-06
-2.70962e-06
-1.31291e-06
5.66718e-07
3.01273e-06
6.12358e-06
1.00112e-05
1.47978e-05
2.06097e-05
2.75656e-05
3.57534e-05
4.51886e-05
5.58248e-05
6.73997e-05
7.93627e-05
9.07419e-05
0.000100102
0.000105824
-6.77422e-06
-6.56633e-06
-6.08029e-06
-5.29295e-06
-4.14278e-06
-2.55183e-06
-4.22054e-07
2.36593e-06
5.95425e-06
1.05083e-05
1.6215e-05
2.32744e-05
3.18833e-05
4.22094e-05
5.42984e-05
6.80879e-05
8.31046e-05
9.82773e-05
0.000111521
0.000120633
-9.27014e-06
-9.15307e-06
-8.84022e-06
-8.30644e-06
-7.48131e-06
-6.27752e-06
-4.58399e-06
-2.26226e-06
8.5886e-07
4.98907e-06
1.03818e-05
1.73364e-05
2.61912e-05
3.73195e-05
5.09303e-05
6.73483e-05
8.63466e-05
0.000106987
0.000126452
0.000142182
-1.19909e-05
-1.19897e-05
-1.18962e-05
-1.1684e-05
-1.12734e-05
-1.05705e-05
-9.45532e-06
-7.77615e-06
-5.33947e-06
-1.89764e-06
2.86575e-06
9.35282e-06
1.80672e-05
2.96097e-05
4.46201e-05
6.37335e-05
8.74897e-05
0.000115595
0.000144795
0.000173813
-1.4827e-05
-1.49736e-05
-1.51525e-05
-1.5338e-05
-1.54402e-05
-1.53629e-05
-1.49848e-05
-1.41516e-05
-1.26612e-05
-1.02454e-05
-6.5456e-06
-1.08168e-06
6.79244e-06
1.79458e-05
3.35583e-05
5.47076e-05
8.34187e-05
0.000120814
0.000164315
0.000220241
-1.76416e-05
-1.79777e-05
-1.84895e-05
-1.91574e-05
-1.98752e-05
-2.05522e-05
-2.1076e-05
-2.13054e-05
-2.1051e-05
-2.00512e-05
-1.79416e-05
-1.42114e-05
-8.13421e-06
1.35147e-06
1.58137e-05
3.75951e-05
6.97101e-05
0.000115852
0.000176357
0.000282645
-2.02455e-05
-2.08623e-05
-2.17674e-05
-2.30215e-05
-2.44506e-05
-2.60016e-05
-2.75797e-05
-2.90794e-05
-3.03516e-05
-3.11792e-05
-3.12487e-05
-3.01115e-05
-2.71142e-05
-2.1256e-05
-1.09645e-05
6.22516e-06
3.5445e-05
8.44411e-05
0.000147646
0.000334869
-2.24656e-05
-2.34125e-05
-2.47918e-05
-2.6715e-05
-2.8973e-05
-3.15093e-05
-3.42749e-05
-3.72205e-05
-4.02712e-05
-4.32891e-05
-4.60622e-05
-4.8298e-05
-4.95894e-05
-4.93098e-05
-4.64994e-05
-4.02362e-05
-2.72152e-05
1.10225e-05
-1.75236e-05
0.000240602
-2.3829e-05
-2.60357e-05
-2.75501e-05
-3.08674e-05
-3.36826e-05
-3.71841e-05
-4.10464e-05
-4.54781e-05
-5.0466e-05
-5.59749e-05
-6.19445e-05
-6.83526e-05
-7.52353e-05
-8.27897e-05
-9.13833e-05
-0.000103658
-0.000133065
-0.000105462
-0.000362562
-2.41922e-05
-2.43544e-05
-2.62917e-05
-2.89639e-05
-3.19019e-05
-3.60498e-05
-4.07241e-05
-4.63586e-05
-5.28005e-05
-6.00686e-05
-6.82231e-05
-7.74253e-05
-8.79111e-05
-0.000100195
-0.000115134
-0.000134421
-0.000156123
-0.000225676
-0.000178005
-0.000466077
-0.00021904
-2.15999e-05
-2.94528e-05
-3.16319e-05
-4.01856e-05
-4.32637e-05
-4.97367e-05
-5.52451e-05
-6.24606e-05
-7.09009e-05
-8.11874e-05
-9.33629e-05
-0.000108052
-0.00012578
-0.000147912
-0.000180216
-0.000204009
-0.000293153
-0.000277048
-0.000426487
-0.000317375
-2.11941e-05
-2.83501e-05
-3.16976e-05
-3.44319e-05
-3.946e-05
-4.48091e-05
-5.28295e-05
-6.25822e-05
-7.4151e-05
-8.75906e-05
-0.000103413
-0.000121386
-0.000143658
-0.000168205
-0.000208506
-0.000244135
-0.000333956
-0.000395902
-0.00054213
-0.000472204
1.87512e-06
-2.25551e-05
-3.58736e-05
-4.9718e-05
-5.26658e-05
-6.21447e-05
-6.6427e-05
-7.75925e-05
-8.72595e-05
-0.000102481
-0.000118401
-0.000138854
-0.000165202
-0.00018661
-0.000243589
-0.000282177
-0.000375221
-0.00053234
-0.000697403
-0.000520111
-1.09338e-05
-5.49101e-05
-4.43417e-05
-3.92325e-05
-3.72169e-05
-4.18743e-05
-4.97869e-05
-6.31146e-05
-7.80706e-05
-9.50192e-05
-0.000117629
-0.000136505
-0.000169173
-0.000196274
-0.000236281
-0.000298142
-0.000351253
-0.000501718
-0.000594355
-0.00019444
3.44994e-05
-4.43315e-05
-5.13864e-05
-5.66677e-05
-5.07005e-05
-6.88243e-05
-6.07038e-05
-8.9978e-05
-9.0468e-05
-0.00011377
-0.00013595
-0.000149925
-0.000191517
-0.0002015
-0.000237224
-0.00031865
-0.000298375
-0.000374102
-0.000394706
0.000440083
-0.000103394
-2.00332e-05
-6.18318e-06
-1.06816e-05
-2.4807e-05
-3.52471e-05
-4.11645e-05
-6.29298e-05
-7.74034e-05
-9.23617e-05
-0.000124098
-0.000138768
-0.000159189
-0.000201595
-0.000208184
-0.000248834
-0.000212723
2.64885e-05
0.000447621
0.00186353
)
;

boundaryField
{
    movingWall
    {
        type            zeroGradient;
    }
    fixedWalls
    {
        type            zeroGradient;
    }
    frontAndBack
    {
        type            empty;
    }
}


// ************************************************************************* //
