/*--------------------------------*- C++ -*----------------------------------*\
| =========                 |                                                 |
| \\      /  F ield         | OpenFOAM: The Open Source CFD Toolbox           |
|  \\    /   O peration     | Version:  5.x                                   |
|   \\  /    A nd           | Web:      www.OpenFOAM.org                      |
|    \\/     M anipulation  |                                                 |
\*---------------------------------------------------------------------------*/
FoamFile
{
    version     2.0;
    format      ascii;
    class       volVectorField;
    location    "16.9";
    object      U;
}
// * * * * * * * * * * * * * * * * * * * * * * * * * * * * * * * * * * * * * //

dimensions      [0 1 -1 0 0 0 0];

internalField   nonuniform List<vector> 
400
(
(-0.0186432 0.00933238 0)
(-0.0401827 0.00749209 0)
(-0.0502071 0.00237535 0)
(-0.0546855 0.00155675 0)
(-0.0567256 -0.00054228 0)
(-0.0581868 0.000303036 0)
(-0.0578003 -0.00092632 0)
(-0.0594108 6.23347e-05 0)
(-0.0588353 -0.000830116 0)
(-0.0608334 1.57788e-05 0)
(-0.059907 -0.000603334 0)
(-0.0629916 -0.000110069 0)
(-0.0610156 -0.00109623 0)
(-0.0649142 -0.00126115 0)
(-0.0620074 -0.001944 0)
(-0.064084 -0.00282349 0)
(-0.0584336 -0.00397176 0)
(-0.054378 -0.00805902 0)
(-0.0490695 -0.0125086 0)
(-0.00549091 -0.0219201 0)
(-0.00966103 0.0389958 0)
(-0.0216507 0.0245301 0)
(-0.0229746 0.0114496 0)
(-0.0277918 0.00593931 0)
(-0.0240484 0.00161514 0)
(-0.0296009 0.00169769 0)
(-0.0231288 6.27223e-05 0)
(-0.0310937 0.00182781 0)
(-0.0217541 0.000874717 0)
(-0.031622 0.00231784 0)
(-0.0221096 0.00142074 0)
(-0.0311419 0.00186977 0)
(-0.0254934 0.0015211 0)
(-0.029989 0.00136306 0)
(-0.0285738 0.00106676 0)
(-0.0274204 -0.00100152 0)
(-0.0294593 -0.00333296 0)
(-0.0249944 -0.0138205 0)
(-0.0339975 -0.0251953 0)
(-0.00434863 -0.0487955 0)
(-0.00530506 0.0443171 0)
(-0.00916305 0.0284411 0)
(-0.00893544 0.0126168 0)
(-0.00957751 0.00430536 0)
(-0.00649366 0.000727351 0)
(-0.0109023 0.000450933 0)
(-0.00598125 -0.00049884 0)
(-0.0126683 -0.000197569 0)
(-0.00791278 -0.000354648 0)
(-0.0140381 -0.000135628 0)
(-0.0105503 0.000403513 0)
(-0.0146861 0.00142419 0)
(-0.0118016 0.00087224 0)
(-0.0127166 -0.000892481 0)
(-0.013017 -0.000995956 0)
(-0.0065931 -0.0037886 0)
(-0.0146999 -0.00171518 0)
(0.00650178 -0.00376679 0)
(-0.0120889 -0.013551 0)
(0.0030501 -0.0557549 0)
(-0.00180351 0.0521021 0)
(-0.00448069 0.0322477 0)
(-0.00120865 0.0099314 0)
(-0.00236375 0.00470428 0)
(3.15361e-05 0.00158007 0)
(-0.00387251 0.00159033 0)
(-0.00149424 0.0016395 0)
(-0.00600651 0.00275736 0)
(-0.00342863 0.00274986 0)
(-0.00752493 0.00373124 0)
(-0.00494198 0.00274282 0)
(-0.00668805 0.00172577 0)
(-0.00512174 0.000397668 0)
(-0.00362095 0.000281373 0)
(-0.00743971 -0.00266508 0)
(-0.0052868 -0.00389236 0)
(-0.0134868 -0.0147652 0)
(-0.00399934 -0.0200547 0)
(-0.0105858 -0.0238928 0)
(0.00324065 -0.0623325 0)
(-0.000968427 0.0495716 0)
(0.000131343 0.0290616 0)
(0.000631549 0.00998572 0)
(0.0013679 0.00284336 0)
(0.00173956 0.00227699 0)
(-0.000626059 0.00199816 0)
(-0.000493393 0.00204547 0)
(-0.00251769 0.00200756 0)
(-0.00230668 0.00185238 0)
(-0.00309311 0.00149434 0)
(-0.00296844 0.000592628 0)
(-0.00286045 0.00110385 0)
(-0.00378074 -0.000773523 0)
(-0.00090087 0.000377322 0)
(-0.00860011 0.0024495 0)
(-0.00130507 0.00108049 0)
(-0.00971596 -0.00048884 0)
(0.00352787 -0.0107342 0)
(-0.00645263 -0.0146855 0)
(0.00630515 -0.0624403 0)
(9.98806e-05 0.0522231 0)
(-0.00060325 0.0312213 0)
(0.00181123 0.00740449 0)
(0.000802335 0.00421847 0)
(0.000148598 0.00298969 0)
(-0.00120915 0.00394901 0)
(-0.00131894 0.00317863 0)
(-0.00231942 0.00385819 0)
(-0.00317452 0.00318835 0)
(-0.00284877 0.00333816 0)
(-0.00282197 0.00249434 0)
(-0.00375207 0.00158143 0)
(-0.00525455 -0.00147198 0)
(0.00152635 0.00452996 0)
(-0.00627891 -0.00101123 0)
(0.00346065 -0.00483442 0)
(-0.00720747 -0.0177307 0)
(-0.000706617 -0.0239814 0)
(-0.0090108 -0.0287813 0)
(0.00479325 -0.0665798 0)
(0.000224358 0.0493545 0)
(0.00219356 0.0256295 0)
(0.00249495 0.00841584 0)
(0.00157091 0.00365909 0)
(0.00120633 0.00436919 0)
(0.00107124 0.0029743 0)
(-0.000724905 0.00368854 0)
(-0.00116528 0.00405853 0)
(-0.002029 0.00324771 0)
(-0.00106587 0.00137816 0)
(-0.00373367 0.00240546 0)
(-0.00108177 0.00452101 0)
(-0.00308307 -0.00523699 0)
(0.00449677 -0.000115908 0)
(-0.00792463 0.00172919 0)
(0.00537955 0.00125324 0)
(-0.00635153 0.00524439 0)
(0.00438436 -0.0105618 0)
(-0.0064548 -0.0166185 0)
(0.00618507 -0.0644549 0)
(0.000284876 0.0493433 0)
(0.000930745 0.0306106 0)
(0.00135425 0.00907656 0)
(0.00207731 0.00628043 0)
(-0.000131838 0.00390587 0)
(0.000755925 0.00650128 0)
(-0.00110371 0.00541382 0)
(-0.00147469 0.00471675 0)
(-0.00091319 0.00311106 0)
(0.000445332 0.00451802 0)
(-0.00812265 0.00125214 0)
(-0.00997933 0.000426801 0)
(-0.00251783 -0.0076879 0)
(-0.000232784 0.0109805 0)
(-0.00654506 -0.00200123 0)
(-0.00347939 -0.0066814 0)
(-0.00563835 -0.0155951 0)
(-0.00108975 -0.0243398 0)
(-0.00768929 -0.0321163 0)
(0.00454196 -0.068951 0)
(0.000734804 0.0474644 0)
(0.00161939 0.0233292 0)
(0.00176929 0.0056342 0)
(0.000465656 0.00411837 0)
(0.000616801 0.00499899 0)
(0.000518879 0.00300852 0)
(0.00261004 0.00559115 0)
(0.00332696 0.00336134 0)
(0.00300315 0.00115184 0)
(-0.000250248 0.00883363 0)
(-0.003339 0.0138184 0)
(-0.0059076 0.00104404 0)
(-0.000400637 -0.0176103 0)
(0.00437211 0.00191188 0)
(-0.00713876 0.0057774 0)
(0.00212051 -0.00156513 0)
(-0.00680852 0.00206924 0)
(-0.00152823 -0.00860043 0)
(-0.00400968 -0.0207464 0)
(0.0046036 -0.0674503 0)
(-0.000808045 0.0472518 0)
(0.0026135 0.0299979 0)
(0.00114751 0.0124822 0)
(0.00379585 0.00802588 0)
(0.00232288 0.00511795 0)
(0.00101989 0.00498453 0)
(0.00221623 0.00393187 0)
(0.00250725 0.00480794 0)
(-0.00677831 0.00806146 0)
(-0.0120104 0.00948022 0)
(-0.0125836 0.00707562 0)
(-0.00706103 -0.00416398 0)
(-0.00837948 -0.0139536 0)
(-0.00376982 0.0172803 0)
(-0.00643609 0.001124 0)
(0.00252711 -0.00657759 0)
(-0.00399383 -0.00961771 0)
(0.0034383 -0.0290526 0)
(-0.0057434 -0.0422867 0)
(0.00320176 -0.071212 0)
(0.000908384 0.0458435 0)
(0.000809967 0.0223576 0)
(0.000858653 0.00249673 0)
(0.00217207 0.00234736 0)
(-0.000360263 0.007012 0)
(-0.000998486 0.00215183 0)
(-0.000225436 0.00354998 0)
(-0.000691953 0.0103691 0)
(-0.00322102 0.013698 0)
(-0.00483442 0.0153396 0)
(-0.00817355 0.00903272 0)
(-0.00586638 -0.00685676 0)
(-0.0127148 -0.0239877 0)
(0.000950072 0.00390912 0)
(-9.54255e-05 -0.00197733 0)
(0.0127663 -0.00585037 0)
(0.00369088 0.000151451 0)
(0.0115707 -0.00708136 0)
(-0.000638893 -0.0184354 0)
(0.00425429 -0.0649609 0)
(-0.00168913 0.0451513 0)
(0.0035974 0.0273502 0)
(0.000167376 0.0129572 0)
(-0.00158019 0.00936325 0)
(-0.00780959 0.00961621 0)
(-0.00477649 0.0039704 0)
(-0.0102423 0.0053042 0)
(-0.00683279 0.00870486 0)
(-0.00564371 0.013924 0)
(-0.00449804 0.0150911 0)
(-0.000474255 0.0112871 0)
(0.00106867 0.000521828 0)
(-0.00693869 -0.0146811 0)
(-0.00587844 0.0023885 0)
(-0.000377864 -0.00807741 0)
(0.00596269 -0.0102928 0)
(-0.000528526 -0.00429832 0)
(0.0129922 -0.0228221 0)
(0.000339144 -0.0297831 0)
(0.00473752 -0.067657 0)
(0.00133162 0.0438267 0)
(0.000438439 0.0232047 0)
(0.00231849 0.00665857 0)
(-0.00364121 0.00904873 0)
(-0.00100269 0.0108393 0)
(-0.000609945 0.00413196 0)
(-0.00599086 0.00513286 0)
(-0.0078832 0.0067387 0)
(-0.00882348 0.00970956 0)
(-0.00550476 0.0111102 0)
(5.07833e-05 0.00181075 0)
(-8.37039e-06 0.000408576 0)
(0.00412232 -0.0176641 0)
(-0.0082411 -0.00612528 0)
(0.00915179 -0.0146528 0)
(-0.00710172 -0.0106785 0)
(-0.0056175 -0.00642859 0)
(0.00347646 -0.0144182 0)
(-0.00634127 -0.0151216 0)
(0.00404838 -0.0655558 0)
(-0.0017434 0.0438788 0)
(0.00287253 0.0247389 0)
(-0.000189103 0.0175814 0)
(0.00443612 0.0128288 0)
(0.00169098 0.00790016 0)
(0.00560861 0.00695731 0)
(0.00597972 0.0140217 0)
(0.00463514 0.00940827 0)
(0.00304449 0.010473 0)
(0.00166682 0.00638432 0)
(0.00749936 0.00382417 0)
(0.00489382 -0.00310125 0)
(0.0106369 -0.00828755 0)
(-0.00385674 -0.00318922 0)
(0.0154322 -0.00574608 0)
(-0.000183675 0.00561467 0)
(0.00889986 -0.0120364 0)
(0.0112866 -0.0200799 0)
(0.000296231 -0.0267892 0)
(0.00556395 -0.0655065 0)
(0.00187123 0.0414369 0)
(0.000634839 0.0212141 0)
(-8.05179e-05 0.00543157 0)
(0.00250249 0.00447889 0)
(0.00891842 0.0117897 0)
(0.00771046 -0.000379619 0)
(0.011116 0.00556745 0)
(0.0154128 0.0125303 0)
(0.0203793 0.010968 0)
(0.0193588 0.0106679 0)
(0.0226703 -0.00312604 0)
(0.0225787 -0.000953173 0)
(0.0192613 -0.00783743 0)
(0.023447 -0.0122856 0)
(0.0213917 -0.0197036 0)
(0.0228642 -0.00791562 0)
(0.02257 -0.0164938 0)
(0.0104489 -0.00907192 0)
(-0.00550583 -0.00544517 0)
(0.00617408 -0.0646747 0)
(-0.00193253 0.0420129 0)
(0.00465984 0.0256271 0)
(0.000778003 0.0180775 0)
(0.00595646 0.00364312 0)
(-0.00736055 0.00372965 0)
(0.0183598 0.00262668 0)
(-0.00652165 0.00886995 0)
(0.026659 -0.00198059 0)
(0.0191777 0.00529547 0)
(0.0309181 0.00947282 0)
(0.028154 -0.00264221 0)
(0.0253982 0.00467853 0)
(0.0271891 -0.00995446 0)
(0.0165001 -0.00610361 0)
(0.0127554 0.00269266 0)
(0.00790011 0.00086694 0)
(-0.0141007 0.0101798 0)
(0.00307541 0.0014128 0)
(-0.00585995 -0.0205741 0)
(0.00709346 -0.0650966 0)
(0.0025808 0.0384084 0)
(0.00301012 0.020219 0)
(0.000589316 0.00303173 0)
(0.00899536 0.00994865 0)
(0.00257044 0.00176259 0)
(0.00986906 -0.00256978 0)
(0.00744806 -0.00475602 0)
(0.0221077 -0.00788072 0)
(0.0139958 -0.0017094 0)
(0.0267112 0.00540661 0)
(0.0240545 -0.00188411 0)
(0.0181246 -0.000519135 0)
(0.0253572 0.00661963 0)
(-0.0134135 -0.00871856 0)
(0.00365741 -0.00839542 0)
(-0.00843049 0.0117176 0)
(0.00498096 -0.0113198 0)
(0.0189315 -0.0195426 0)
(-0.00434458 -0.0149087 0)
(0.00806922 -0.0629145 0)
(-6.37277e-05 0.0359799 0)
(0.0126717 0.0243939 0)
(0.0115519 0.0154357 0)
(0.00872787 0.00242643 0)
(0.0157601 0.00216596 0)
(0.0147525 -0.0020152 0)
(0.0187973 -0.00580873 0)
(0.0134894 -0.0093006 0)
(0.018577 0.00229338 0)
(0.0120547 0.000834773 0)
(0.0296293 0.00685746 0)
(0.0115986 0.00590206 0)
(0.0377276 0.012848 0)
(0.0230083 0.0227806 0)
(0.0282129 -0.00182135 0)
(0.00851099 0.00437708 0)
(0.0273365 -0.0128708 0)
(0.00181716 0.0107219 0)
(-0.000716893 0.000882041 0)
(0.0140455 -0.0624046 0)
(0.00487449 0.026921 0)
(0.011498 0.0145235 0)
(0.0177004 0.00527051 0)
(0.021078 0.00375839 0)
(0.01117 -0.0021047 0)
(0.0147297 -0.00276062 0)
(0.000614595 -0.00549031 0)
(-0.00710229 -0.00317646 0)
(-0.0147761 -0.00410582 0)
(-0.0151149 -0.00382141 0)
(-0.0191446 -0.00631306 0)
(-0.0138557 -0.00637702 0)
(-0.0223202 -0.00333123 0)
(0.0035308 0.00481628 0)
(-0.00472713 0.000406543 0)
(-0.00153019 0.00701538 0)
(0.00512474 -0.00264724 0)
(-0.0161842 0.0013128 0)
(0.0235862 -0.0357699 0)
(0.0125202 -0.0578091 0)
(0.00921575 0.0191171 0)
(0.031906 0.0118486 0)
(0.0343792 0.0105627 0)
(0.0477648 0.00658121 0)
(0.0469531 0.00906737 0)
(0.0539088 0.0065512 0)
(0.0539267 0.0113809 0)
(0.0577583 0.00863375 0)
(0.0584361 0.00973159 0)
(0.0626556 0.00743974 0)
(0.0618537 0.00719755 0)
(0.0658416 0.00594955 0)
(0.062185 0.00374987 0)
(0.064961 -0.00156202 0)
(0.0621699 0.00249167 0)
(0.067636 -0.00190541 0)
(0.0647309 0.00123693 0)
(0.0686345 -0.0033741 0)
(0.0552087 -0.00657788 0)
(0.0371703 -0.0109747 0)
)
;

boundaryField
{
    movingWall
    {
        type            fixedValue;
        value           uniform (1 0 0);
    }
    fixedWalls
    {
        type            noSlip;
    }
    frontAndBack
    {
        type            empty;
    }
}


// ************************************************************************* //
