/*--------------------------------*- C++ -*----------------------------------*\
| =========                 |                                                 |
| \\      /  F ield         | OpenFOAM: The Open Source CFD Toolbox           |
|  \\    /   O peration     | Version:  5.x                                   |
|   \\  /    A nd           | Web:      www.OpenFOAM.org                      |
|    \\/     M anipulation  |                                                 |
\*---------------------------------------------------------------------------*/
FoamFile
{
    version     2.0;
    format      ascii;
    class       surfaceScalarField;
    location    "9.9";
    object      phi;
}
// * * * * * * * * * * * * * * * * * * * * * * * * * * * * * * * * * * * * * //

dimensions      [0 3 -1 0 0 0 0];

internalField   nonuniform List<scalar> 
760
(
-9.49864e-07
9.49864e-07
-1.63351e-06
6.8365e-07
-1.97963e-06
3.46116e-07
-2.12093e-06
1.41302e-07
-2.24422e-06
1.23292e-07
-2.32231e-06
7.80845e-08
-2.35402e-06
3.17078e-08
-2.34959e-06
-4.42708e-09
-2.36063e-06
1.10437e-08
-2.40671e-06
4.6081e-08
-2.38856e-06
-1.81535e-08
-2.33819e-06
-5.03686e-08
-2.41851e-06
8.03169e-08
-2.35719e-06
-6.13185e-08
-2.33634e-06
-2.08546e-08
-2.29343e-06
-4.29022e-08
-2.18619e-06
-1.07244e-07
-1.87143e-06
-3.14763e-07
-1.2255e-06
-6.45927e-07
-1.2255e-06
-4.22806e-07
1.37267e-06
-6.57861e-07
9.18705e-07
-8.00971e-07
4.89226e-07
-9.10502e-07
2.50834e-07
-9.17736e-07
1.30525e-07
-9.34853e-07
9.5202e-08
-9.59559e-07
5.64137e-08
-1.00015e-06
3.61648e-08
-1.00697e-06
1.78595e-08
-9.78434e-07
1.75486e-08
-1.00276e-06
6.16747e-09
-1.0095e-06
-4.36191e-08
-9.60019e-07
3.0831e-08
-9.51666e-07
-6.96713e-08
-9.63888e-07
-8.63293e-09
-9.30123e-07
-7.66674e-08
-1.00317e-06
-3.41927e-08
-1.04327e-06
-2.74671e-07
-9.17792e-07
-7.714e-07
-2.14329e-06
-2.97644e-07
1.67031e-06
-4.58458e-07
1.07952e-06
-5.3857e-07
5.69338e-07
-5.4584e-07
2.58104e-07
-4.99467e-07
8.41525e-08
-4.63771e-07
5.95056e-08
-3.9824e-07
-9.11723e-09
-3.36433e-07
-2.56423e-08
-2.88955e-07
-2.96182e-08
-2.48585e-07
-2.28216e-08
-2.1141e-07
-3.10077e-08
-2.02529e-07
-5.25001e-08
-1.56502e-07
-1.51956e-08
-1.5886e-07
-6.73141e-08
-1.38143e-07
-2.93495e-08
-1.24953e-07
-8.98578e-08
-1.4443e-07
-1.47151e-08
-1.2216e-07
-2.96941e-07
-2.10808e-07
-6.82753e-07
-2.3541e-06
-2.27989e-07
1.8983e-06
-4.03575e-07
1.25511e-06
-5.40793e-07
7.06556e-07
-5.4335e-07
2.60661e-07
-4.83678e-07
2.44804e-08
-4.1606e-07
-8.11303e-09
-3.33543e-07
-9.16333e-08
-2.66743e-07
-9.24425e-08
-2.09199e-07
-8.71626e-08
-1.51514e-07
-8.05068e-08
-1.25174e-07
-5.73473e-08
-1.03978e-07
-7.36958e-08
-1.06319e-07
-1.28548e-08
-1.09352e-07
-6.42807e-08
-1.65558e-07
2.68561e-08
-1.75282e-07
-8.01334e-08
-1.90237e-07
2.3896e-10
-2.32475e-07
-2.54702e-07
-1.96476e-07
-7.18752e-07
-2.55058e-06
-2.67172e-07
2.16547e-06
-5.13864e-07
1.5018e-06
-6.73589e-07
8.66281e-07
-6.7987e-07
2.66943e-07
-5.83452e-07
-7.19383e-08
-4.57442e-07
-1.34123e-07
-3.6677e-07
-1.82305e-07
-2.89123e-07
-1.7009e-07
-2.23887e-07
-1.52399e-07
-1.64225e-07
-1.40169e-07
-1.14757e-07
-1.06815e-07
-7.28042e-08
-1.15649e-07
-2.87367e-08
-5.69224e-08
1.34125e-08
-1.0643e-07
5.07726e-08
-1.0504e-08
1.05297e-07
-1.34658e-07
9.74322e-08
8.1042e-09
5.23941e-08
-2.09664e-07
-1.86865e-10
-6.66171e-07
-2.55076e-06
-2.39713e-07
2.40519e-06
-5.37571e-07
1.79966e-06
-7.19088e-07
1.0478e-06
-7.38837e-07
2.86691e-07
-6.12886e-07
-1.97889e-07
-4.44572e-07
-3.02436e-07
-3.18951e-07
-3.07926e-07
-2.21881e-07
-2.67161e-07
-1.53997e-07
-2.20282e-07
-1.03207e-07
-1.90959e-07
-7.72821e-08
-1.3274e-07
-5.6176e-08
-1.36755e-07
-4.84981e-08
-6.46003e-08
-4.61562e-08
-1.08772e-07
-3.68878e-08
-1.97725e-08
-6.03118e-08
-1.11234e-07
-3.42298e-08
-1.79778e-08
-2.1308e-08
-2.22586e-07
-1.83752e-08
-6.69104e-07
-2.56914e-06
-2.79297e-07
2.68448e-06
-5.05648e-07
2.02601e-06
-7.07912e-07
1.25006e-06
-7.40306e-07
3.19085e-07
-6.11595e-07
-3.266e-07
-4.32393e-07
-4.81638e-07
-3.00873e-07
-4.39447e-07
-2.04368e-07
-3.63665e-07
-1.29908e-07
-2.94742e-07
-8.04927e-08
-2.40375e-07
-3.28693e-08
-1.80363e-07
-7.39422e-09
-1.6223e-07
2.42982e-08
-9.62927e-08
4.48116e-08
-1.29285e-07
5.59929e-08
-3.09537e-08
7.30748e-08
-1.28316e-07
5.59967e-08
-8.99704e-10
1.45061e-08
-1.81096e-07
-1.60638e-08
-6.38534e-07
-2.5852e-06
-1.36447e-07
2.82093e-06
-2.76037e-07
2.1656e-06
-4.79897e-07
1.45392e-06
-5.46834e-07
3.86022e-07
-4.82203e-07
-3.91231e-07
-3.28604e-07
-6.35237e-07
-2.04463e-07
-5.63588e-07
-1.31978e-07
-4.3615e-07
-8.18471e-08
-3.44873e-07
-5.36694e-08
-2.68553e-07
-2.77453e-08
-2.06287e-07
-2.38259e-08
-1.66149e-07
-4.55325e-09
-1.15565e-07
-1.24592e-08
-1.21379e-07
8.42469e-09
-5.18376e-08
-1.02599e-08
-1.09632e-07
2.78111e-09
-1.39407e-08
1.68021e-08
-1.95117e-07
2.51647e-08
-6.46897e-07
-2.56004e-06
2.50664e-08
2.79586e-06
-6.83657e-08
2.25903e-06
-1.68349e-07
1.5539e-06
-2.55179e-07
4.72853e-07
-2.27421e-07
-4.1899e-07
-1.24471e-07
-7.38186e-07
-2.93762e-08
-6.58682e-07
2.33193e-08
-4.88846e-07
5.34883e-08
-3.75042e-07
6.24959e-08
-2.7756e-07
7.0769e-08
-2.1456e-07
7.00049e-08
-1.65385e-07
7.54103e-08
-1.20971e-07
6.57798e-08
-1.11749e-07
6.3328e-08
-4.93857e-08
6.08744e-08
-1.07178e-07
4.48793e-08
2.05436e-09
-1.45831e-09
-1.48779e-07
-4.1058e-08
-6.07297e-07
-2.60109e-06
2.13929e-07
2.58194e-06
2.35622e-07
2.23734e-06
2.57715e-07
1.53181e-06
2.27825e-07
5.02743e-07
2.12126e-07
-4.03291e-07
1.757e-07
-7.0176e-07
1.15178e-07
-5.9816e-07
6.47579e-08
-4.38426e-07
5.66277e-08
-3.66911e-07
5.32547e-08
-2.74187e-07
5.30014e-08
-2.14307e-07
3.13264e-08
-1.4371e-07
4.18124e-08
-1.31457e-07
1.8108e-08
-8.80442e-08
5.53805e-08
-8.66582e-08
7.57629e-08
-1.27561e-07
4.38808e-08
3.39365e-08
3.92825e-08
-1.44181e-07
3.47077e-08
-6.02722e-07
-2.56639e-06
3.41044e-07
2.24089e-06
6.49137e-07
1.92924e-06
7.26894e-07
1.45405e-06
6.73517e-07
5.56121e-07
5.59329e-07
-2.89103e-07
5.60532e-07
-7.02964e-07
5.93749e-07
-6.31376e-07
5.09916e-07
-3.54593e-07
3.5437e-07
-2.11365e-07
2.20823e-07
-1.4064e-07
1.67719e-07
-1.61204e-07
1.34678e-07
-1.10669e-07
1.16903e-07
-1.13682e-07
1.00174e-07
-7.13155e-08
6.82245e-08
-5.47084e-08
6.69171e-09
-6.60279e-08
2.30899e-08
1.75383e-08
-7.66986e-09
-1.13421e-07
-6.03056e-08
-5.50086e-07
-2.62669e-06
8.78201e-07
1.36269e-06
1.19256e-06
1.61488e-06
1.22887e-06
1.41774e-06
1.11997e-06
6.65031e-07
8.37117e-07
-6.2549e-09
5.99701e-07
-4.65548e-07
5.19344e-07
-5.51019e-07
4.95928e-07
-3.31178e-07
4.00497e-07
-1.15934e-07
2.98411e-07
-3.85543e-08
1.91577e-07
-5.43695e-08
1.19379e-07
-3.84707e-08
4.94387e-08
-4.37412e-08
-5.37435e-08
3.18668e-08
3.98893e-08
-1.48341e-07
-2.03276e-08
-5.8109e-09
1.74397e-08
-2.0229e-08
8.59661e-08
-1.81947e-07
2.41648e-08
-4.88285e-07
-2.60253e-06
1.03446e-06
3.28234e-07
1.3993e-06
1.25004e-06
1.59483e-06
1.22221e-06
1.64508e-06
6.14776e-07
1.42725e-06
2.1158e-07
8.67988e-07
9.37146e-08
3.2692e-07
-9.95095e-09
7.49673e-08
-7.92257e-08
5.44662e-08
-9.5433e-08
3.79853e-08
-2.20734e-08
1.11306e-07
-1.2769e-07
5.47655e-09
6.73586e-08
1.05332e-07
-1.43597e-07
7.85067e-08
5.86919e-08
6.11585e-08
-1.30993e-07
4.31596e-08
1.21881e-08
7.13244e-08
-4.83939e-08
1.05448e-07
-2.16071e-07
-1.90399e-08
-3.63797e-07
-2.62157e-06
5.64531e-07
-2.36298e-07
9.52108e-07
8.62463e-07
1.26713e-06
9.0719e-07
1.38059e-06
5.01316e-07
1.32858e-06
2.63591e-07
1.19631e-06
2.25977e-07
1.05592e-06
1.30446e-07
8.98641e-07
7.80507e-08
8.07536e-07
-4.3279e-09
7.00258e-07
8.52053e-08
6.33384e-07
-6.08166e-08
5.64496e-07
1.36247e-07
4.01789e-07
1.91099e-08
2.93742e-07
1.66739e-07
-9.93418e-08
2.62091e-07
-4.04959e-07
3.17805e-07
-2.03835e-07
-2.49518e-07
-1.04262e-07
-3.15644e-07
1.66452e-08
-4.84704e-07
-2.60492e-06
3.21033e-07
-5.57331e-07
7.33638e-07
4.49858e-07
8.64744e-07
7.76085e-07
7.74765e-07
5.91294e-07
5.85766e-07
4.5259e-07
4.83462e-07
3.28281e-07
3.3251e-07
2.81398e-07
2.54528e-07
1.56033e-07
6.52927e-08
1.84907e-07
1.627e-08
1.34228e-07
-1.45252e-07
1.00706e-07
-1.59786e-07
1.50781e-07
-1.75997e-07
3.53204e-08
-2.48374e-07
2.39116e-07
2.27848e-08
-9.0678e-09
1.451e-07
1.95489e-07
7.31757e-08
-1.77593e-07
-2.33017e-07
-9.45124e-09
-8.29248e-08
-6.34796e-07
-2.68785e-06
1.03839e-07
-6.6117e-07
3.31418e-07
2.22278e-07
5.03107e-07
6.04396e-07
6.54049e-07
4.40352e-07
6.32123e-07
4.74516e-07
6.94485e-07
2.65919e-07
6.40399e-07
3.35483e-07
6.01239e-07
1.95193e-07
5.39147e-07
2.47e-07
4.91265e-07
1.82109e-07
4.62091e-07
1.2988e-07
3.36973e-07
2.75899e-07
3.89198e-07
-1.6905e-08
3.25347e-07
3.02968e-07
2.62716e-07
5.35631e-08
4.33564e-07
2.46414e-08
3.95179e-07
-1.39208e-07
7.27395e-08
3.12988e-07
8.08819e-08
-6.42939e-07
-2.60697e-06
-2.16212e-07
-4.44958e-07
-4.66152e-07
4.72219e-07
-2.33418e-07
3.71661e-07
-1.33094e-07
3.40028e-07
-8.47597e-08
4.26182e-07
-6.36721e-08
2.44832e-07
1.11841e-08
2.60627e-07
-3.64479e-08
2.42825e-07
3.78543e-08
1.72698e-07
1.87848e-08
2.01179e-07
1.44441e-08
1.3422e-07
1.26428e-07
1.63916e-07
-2.17222e-08
1.31245e-07
5.2803e-08
2.28443e-07
-3.52796e-08
1.41646e-07
-3.23543e-07
3.12904e-07
1.01423e-07
-5.64174e-07
2.95441e-07
1.18971e-07
5.14798e-08
-3.98978e-07
-2.55549e-06
-8.6089e-08
-3.58869e-07
2.159e-07
1.7023e-07
3.11561e-07
2.76001e-07
3.50868e-07
3.0072e-07
4.71155e-07
3.05895e-07
5.09935e-07
2.06052e-07
5.6593e-07
2.04632e-07
6.15291e-07
1.93464e-07
6.28379e-07
1.59609e-07
6.73139e-07
1.56419e-07
6.35135e-07
1.72224e-07
6.34971e-07
1.6408e-07
6.68423e-07
9.77926e-08
5.43834e-07
3.53031e-07
7.40287e-07
-5.48066e-08
6.55432e-07
3.97759e-07
4.03284e-07
-3.12026e-07
2.93013e-07
2.29242e-07
2.6193e-07
-3.67894e-07
-2.29356e-06
-7.37496e-07
3.78627e-07
-8.31873e-07
2.64608e-07
-8.21199e-07
2.65326e-07
-7.09023e-07
1.88545e-07
-5.96998e-07
1.93869e-07
-5.60616e-07
1.69671e-07
-5.18477e-07
1.62493e-07
-4.59814e-07
1.34802e-07
-4.33318e-07
1.33112e-07
-3.9751e-07
1.20611e-07
-3.29969e-07
1.04684e-07
-2.74769e-07
1.0888e-07
-2.30989e-07
5.4012e-08
-5.67627e-08
1.78806e-07
-1.81023e-07
6.94541e-08
8.29e-08
1.33836e-07
-2.20252e-07
-8.87434e-09
8.43931e-08
-7.54034e-08
7.27993e-07
-1.01149e-06
-1.56556e-06
3.78627e-07
6.43235e-07
9.08561e-07
1.09711e-06
1.29098e-06
1.46065e-06
1.62314e-06
1.75794e-06
1.89105e-06
2.01166e-06
2.11635e-06
2.22523e-06
2.27924e-06
2.45804e-06
2.5275e-06
2.66133e-06
2.65246e-06
2.57706e-06
1.56556e-06
)
;

boundaryField
{
    movingWall
    {
        type            calculated;
        value           uniform 0;
    }
    fixedWalls
    {
        type            calculated;
        value           uniform 0;
    }
    frontAndBack
    {
        type            empty;
        value           nonuniform 0();
    }
}


// ************************************************************************* //
