/*--------------------------------*- C++ -*----------------------------------*\
| =========                 |                                                 |
| \\      /  F ield         | OpenFOAM: The Open Source CFD Toolbox           |
|  \\    /   O peration     | Version:  5.x                                   |
|   \\  /    A nd           | Web:      www.OpenFOAM.org                      |
|    \\/     M anipulation  |                                                 |
\*---------------------------------------------------------------------------*/
FoamFile
{
    version     2.0;
    format      ascii;
    class       volVectorField;
    location    "9.9";
    object      U;
}
// * * * * * * * * * * * * * * * * * * * * * * * * * * * * * * * * * * * * * //

dimensions      [0 1 -1 0 0 0 0];

internalField   nonuniform List<vector> 
400
(
(-0.0120975 0.00602734 0)
(-0.0286537 0.00399943 0)
(-0.0383605 -0.000159204 0)
(-0.0402252 -0.00232571 0)
(-0.0432314 4.55511e-05 0)
(-0.045442 -0.00110949 0)
(-0.0466967 -0.00203135 0)
(-0.0479195 -0.00279839 0)
(-0.045831 -0.00126581 0)
(-0.0476084 8.25073e-05 0)
(-0.0499371 -0.00246582 0)
(-0.045313 -0.00286791 0)
(-0.0472484 0.000657624 0)
(-0.0503273 -0.00275057 0)
(-0.0447549 -0.00250389 0)
(-0.0482059 -0.000950086 0)
(-0.0457878 -0.0031066 0)
(-0.0386853 -0.00465003 0)
(-0.0415455 -0.00854005 0)
(-0.00118655 -0.0152558 0)
(-0.00656288 0.02825 0)
(-0.0117916 0.0206877 0)
(-0.0155774 0.012441 0)
(-0.0165335 0.00729673 0)
(-0.0187233 0.0045248 0)
(-0.0183092 0.00390215 0)
(-0.0185955 0.0031343 0)
(-0.0201444 0.00263489 0)
(-0.019539 0.00175349 0)
(-0.0200385 0.0017822 0)
(-0.0203634 0.00165924 0)
(-0.0189545 0.00068823 0)
(-0.0211234 0.00240677 0)
(-0.0174402 0.000142255 0)
(-0.0213225 0.00153371 0)
(-0.015793 -0.00087452 0)
(-0.0231047 -0.00192215 0)
(-0.0165694 -0.00993296 0)
(-0.0283747 -0.0204882 0)
(-0.00379939 -0.0388441 0)
(-0.00460193 0.0293289 0)
(-0.00833498 0.0180282 0)
(-0.0104541 0.00856236 0)
(-0.0112147 0.00351468 0)
(-0.0100621 0.00102029 0)
(-0.00994426 0.000263314 0)
(-0.00828477 -0.000611606 0)
(-0.00737794 -0.00106054 0)
(-0.00645123 -0.00113076 0)
(-0.00455528 -0.00101198 0)
(-0.00602294 -0.00134271 0)
(-0.00181852 -0.00229095 0)
(-0.00674852 -0.00123367 0)
(0.000760721 -0.00277202 0)
(-0.00741203 -0.00186882 0)
(0.00224251 -0.00248693 0)
(-0.00764655 0.000822688 0)
(0.00211126 0.000176883 0)
(-0.00773401 -0.00791229 0)
(0.00075869 -0.0442057 0)
(-0.00359818 0.0369205 0)
(-0.00621285 0.0250632 0)
(-0.0103165 0.0139111 0)
(-0.0116153 0.00652539 0)
(-0.00957611 0.00226096 0)
(-0.0096382 0.00193165 0)
(-0.00714534 0.000153307 0)
(-0.00579277 -7.12273e-05 0)
(-0.00524345 -4.84836e-05 0)
(-0.00271159 2.49796e-05 0)
(-0.00373774 9.39203e-05 0)
(-0.000930786 6.73986e-05 0)
(-0.00348102 0.000711373 0)
(-0.000525914 0.000197545 0)
(-0.00415826 0.000851834 0)
(-0.00197164 -0.000711717 0)
(-0.00556906 -0.00128441 0)
(-0.00143755 -0.0115608 0)
(-0.00890194 -0.0207025 0)
(0.00213892 -0.0504476 0)
(-0.00301043 0.0389745 0)
(-0.00828507 0.0250068 0)
(-0.0128252 0.0143756 0)
(-0.0142754 0.0042705 0)
(-0.0122387 -0.00117938 0)
(-0.0107279 -0.00215071 0)
(-0.00791725 -0.003549 0)
(-0.00631945 -0.00341969 0)
(-0.00565214 -0.00329686 0)
(-0.00288713 -0.00313119 0)
(-0.00407025 -0.00247356 0)
(-0.000177716 -0.00295283 0)
(-0.0030117 -0.00131595 0)
(0.00204665 -0.0029474 0)
(-0.00164697 4.41888e-05 0)
(0.00396326 -0.00286758 0)
(-0.00018536 0.00124302 0)
(0.00445362 0.000647354 0)
(-0.00270135 -0.00708069 0)
(0.00277674 -0.0488432 0)
(-0.00127282 0.0465953 0)
(-0.00876717 0.0344389 0)
(-0.0135792 0.0198326 0)
(-0.0153114 0.00620989 0)
(-0.0134484 -0.00189457 0)
(-0.0104521 -0.00354577 0)
(-0.00772742 -0.00410541 0)
(-0.00465169 -0.00368061 0)
(-0.00455959 -0.00300646 0)
(-0.00131539 -0.0026255 0)
(-0.00306686 -0.00169447 0)
(0.000192881 -0.00159365 0)
(-0.00263308 -0.000760829 0)
(0.000886448 -0.00107932 0)
(-0.00294572 -0.000340558 0)
(0.00169037 -0.00204815 0)
(-0.004436 -0.000780139 0)
(0.00335199 -0.00822226 0)
(-0.00443696 -0.0185358 0)
(0.00388082 -0.0524792 0)
(-0.00360878 0.0482125 0)
(-0.00813967 0.0358442 0)
(-0.0131275 0.0206325 0)
(-0.0153279 0.00461511 0)
(-0.0132556 -0.00638157 0)
(-0.0103678 -0.00878226 0)
(-0.00738054 -0.00832662 0)
(-0.00438806 -0.00713504 0)
(-0.00409788 -0.00593213 0)
(-0.000880964 -0.00521975 0)
(-0.00255797 -0.00382758 0)
(0.00139106 -0.00409582 0)
(-0.00176787 -0.00205093 0)
(0.00291818 -0.00353726 0)
(-0.00139755 -0.000618364 0)
(0.00396291 -0.0027979 0)
(-0.00143349 -0.000125336 0)
(0.00403544 -0.00147928 0)
(-0.00366604 -0.00953574 0)
(0.00323874 -0.0499114 0)
(-0.00276828 0.0572621 0)
(-0.00313191 0.0438136 0)
(-0.00872266 0.0284648 0)
(-0.0106228 0.00777973 0)
(-0.0103708 -0.00725752 0)
(-0.00794146 -0.0111418 0)
(-0.00554327 -0.00965774 0)
(-0.00254638 -0.00736595 0)
(-0.00302135 -0.00570543 0)
(-6.52686e-05 -0.00411608 0)
(-0.002279 -0.00311139 0)
(0.00130681 -0.00210937 0)
(-0.00240639 -0.00152071 0)
(0.00229084 -0.00132646 0)
(-0.00292318 -0.000426413 0)
(0.00338903 -0.00193395 0)
(-0.0039546 0.000131708 0)
(0.00415754 -0.00508876 0)
(-0.00369333 -0.0145913 0)
(0.00489016 -0.0523821 0)
(0.00119065 0.0551735 0)
(-0.000480138 0.0421932 0)
(-0.00265899 0.0286442 0)
(-0.00453713 0.00684519 0)
(-0.00498732 -0.00918162 0)
(-0.00327592 -0.0146984 0)
(-0.00189797 -0.0132303 0)
(0.000684511 -0.0105119 0)
(6.74217e-05 -0.00854491 0)
(0.00228939 -0.00703018 0)
(-6.62332e-05 -0.0055236 0)
(0.00318027 -0.0048695 0)
(-0.000694061 -0.00341847 0)
(0.00405185 -0.0038483 0)
(-0.001772 -0.00187169 0)
(0.0046842 -0.00277759 0)
(-0.00265586 -0.000830899 0)
(0.00483108 -0.00335366 0)
(-0.00498856 -0.0127259 0)
(0.00371504 -0.0509987 0)
(0.00503868 0.0555731 0)
(0.00292763 0.0478371 0)
(0.00528732 0.0323506 0)
(0.00480083 0.011602 0)
(0.00510151 -0.00748411 0)
(0.00441851 -0.0143746 0)
(0.0021775 -0.0126756 0)
(0.00224705 -0.0085843 0)
(7.43779e-05 -0.00600961 0)
(0.00241308 -0.00359631 0)
(-0.000553598 -0.00266385 0)
(0.00293279 -0.00135998 0)
(-0.0019048 -0.00109793 0)
(0.00385595 -0.000280958 0)
(-0.00333203 8.20623e-05 0)
(0.00590513 -0.00124044 0)
(-0.00332825 0.000967005 0)
(0.00545866 -0.00210453 0)
(-0.00422937 -0.0102124 0)
(0.00587 -0.0519068 0)
(0.000679403 0.0499051 0)
(0.0115322 0.0424747 0)
(0.0128961 0.0304209 0)
(0.0153216 0.00919084 0)
(0.0130592 -0.00797827 0)
(0.010779 -0.0136256 0)
(0.0112496 -0.011066 0)
(0.012069 -0.00871056 0)
(0.00786459 -0.0085 0)
(0.00646495 -0.00776729 0)
(0.00200175 -0.00625961 0)
(0.00504646 -0.00477297 0)
(-5.04051e-05 -0.00452427 0)
(0.00512903 -0.0035678 0)
(-0.00153403 -0.00377468 0)
(0.00466556 -0.00408588 0)
(-0.00454747 0.000206781 0)
(0.00577606 -0.00405821 0)
(-0.0062707 -0.0151322 0)
(0.00431356 -0.0523094 0)
(0.00916023 0.0437591 0)
(0.0232131 0.0381742 0)
(0.0229703 0.0296949 0)
(0.025218 0.0136525 0)
(0.021217 -0.00361365 0)
(0.0140809 -0.0140589 0)
(0.00932142 -0.0142492 0)
(0.0108299 -0.00566501 0)
(0.00873111 -0.000219649 0)
(0.00770709 0.00240043 0)
(0.00386185 0.000100505 0)
(0.00409774 0.000723133 0)
(0.000361044 0.000391477 0)
(0.00186689 0.00104164 0)
(-0.00431123 0.00182234 0)
(0.00619762 0.00142343 0)
(-0.00726337 0.000569818 0)
(0.00822213 -0.000204301 0)
(-0.00537729 -0.00592963 0)
(0.0066296 -0.0510155 0)
(0.0105137 0.0113834 0)
(0.0275963 0.0271699 0)
(0.029863 0.02843 0)
(0.0325372 0.0142868 0)
(0.0346927 0.00353587 0)
(0.0243089 -0.00338612 0)
(0.0101327 -0.0065853 0)
(0.00205637 -0.0076271 0)
(0.00119978 -0.00440904 0)
(0.000806552 -0.00411687 0)
(0.00091665 -0.00238525 0)
(0.00323717 -0.00249108 0)
(-0.00306164 -0.00242487 0)
(0.00763702 -1.43963e-05 0)
(-0.00492102 -0.00835484 0)
(0.00782887 -0.00159129 0)
(-0.00650351 -0.00130845 0)
(0.00984884 -0.00760382 0)
(-0.00626994 -0.0142676 0)
(0.00576706 -0.0526586 0)
(0.00139861 0.000357191 0)
(0.0186164 0.0202606 0)
(0.0222453 0.0217298 0)
(0.0268352 0.0116661 0)
(0.0279032 0.00539456 0)
(0.0266436 0.00688783 0)
(0.0204971 0.00605825 0)
(0.0219254 0.00466535 0)
(0.0141393 0.000914711 0)
(0.0183165 0.00340377 0)
(0.0098047 -0.00244661 0)
(0.0150036 0.00553402 0)
(0.00788048 -0.00285526 0)
(0.00833361 0.00281245 0)
(0.00396978 0.00384691 0)
(-0.00832268 0.00201508 0)
(-0.008824 -0.000416072 0)
(0.00180039 -5.06377e-05 0)
(-0.00676709 0.000770271 0)
(0.00765762 -0.0516553 0)
(-0.00492327 -0.00932196 0)
(0.0162376 0.0149036 0)
(0.0152682 0.0132313 0)
(0.0182069 0.0072195 0)
(0.0119472 0.00449882 0)
(0.0121935 0.00221717 0)
(0.00687366 -0.000392107 0)
(0.00674587 -0.00132406 0)
(0.00293055 -0.00112493 0)
(-9.44361e-05 -0.000269292 0)
(0.000780993 -0.000230433 0)
(-0.00713526 -0.000710321 0)
(0.00156726 0.00351098 0)
(-0.00956269 0.00290747 0)
(0.000659791 0.00559071 0)
(6.85605e-05 0.00978792 0)
(0.00518195 -0.0105895 0)
(-0.00165063 -0.0138844 0)
(-0.00897105 -0.0219773 0)
(0.00636916 -0.0550105 0)
(-0.00258175 -0.015076 0)
(0.0069751 0.00249943 0)
(0.00678311 0.0165889 0)
(0.0129122 0.0152449 0)
(0.0125782 0.0127454 0)
(0.0135923 0.0103305 0)
(0.0130507 0.0107365 0)
(0.0135713 0.00699964 0)
(0.00964952 0.00833504 0)
(0.012605 0.00577678 0)
(0.00651439 0.00465836 0)
(0.0123125 0.00745512 0)
(0.00160216 -0.00193548 0)
(0.0131751 0.00776011 0)
(0.0005348 -0.0058046 0)
(0.00976149 -0.000905929 0)
(0.00754078 0.00469838 0)
(0.00787891 0.0136409 0)
(-0.00525713 -0.00122169 0)
(0.00894902 -0.0513846 0)
(0.00251907 -0.00892873 0)
(-0.0121651 0.00678541 0)
(-0.00547981 0.00792465 0)
(-0.00319931 0.00322418 0)
(-0.00261656 0.00679772 0)
(-0.000542115 0.000661011 0)
(-0.00220946 0.00355017 0)
(0.00276932 0.00142688 0)
(-0.00452562 0.00131973 0)
(0.00634414 0.00178645 0)
(-0.00580195 2.20526e-05 0)
(0.00651969 0.0027208 0)
(-0.00122673 0.00112189 0)
(9.43114e-05 0.00328339 0)
(0.00256566 0.0079922 0)
(-0.00435919 0.00153817 0)
(-0.00972581 -0.0114864 0)
(0.0148031 -0.00204393 0)
(-0.00492354 -0.027053 0)
(0.00777666 -0.0541188 0)
(-0.00513494 -0.00987956 0)
(0.000960202 0.0113101 0)
(0.00863188 0.00754904 0)
(0.00381004 0.00985917 0)
(0.0101429 0.00994359 0)
(0.00842337 0.00874743 0)
(0.0118129 0.00637547 0)
(0.0108196 0.00762221 0)
(0.0134204 0.00583388 0)
(0.012214 0.00587661 0)
(0.0138278 0.00583658 0)
(0.0127878 0.00446459 0)
(0.0114345 0.00456879 0)
(0.0161958 0.0066568 0)
(0.00650316 -0.00255763 0)
(0.0210615 0.0108943 0)
(0.00583453 -0.00918205 0)
(0.0120527 0.00803274 0)
(-0.00197495 0.0132751 0)
(0.0139236 -0.0463721 0)
(-0.0198329 -0.00330452 0)
(-0.0114205 -0.00388941 0)
(-0.0208685 0.00273708 0)
(-0.011448 0.00166879 0)
(-0.0159478 0.00242705 0)
(-0.00853351 -9.19318e-05 0)
(-0.0143919 0.00173842 0)
(-0.00573905 0.00059051 0)
(-0.0132766 0.000421072 0)
(-0.00341021 0.00058356 0)
(-0.0133458 0.000481288 0)
(0.00115926 0.00155698 0)
(-0.0132185 -0.00123914 0)
(0.00499705 0.00666361 0)
(-0.00766801 3.29074e-05 0)
(-7.30743e-05 0.00584702 0)
(0.00414881 -0.00294932 0)
(-0.0147247 -0.00120616 0)
(0.0188305 -0.0305055 0)
(0.0131521 -0.0528384 0)
(0.000493713 0.0168623 0)
(0.0150989 0.0139981 0)
(0.0116175 0.00877224 0)
(0.0232822 0.0063826 0)
(0.0219069 0.00541166 0)
(0.0283626 0.00651746 0)
(0.0314215 0.00502887 0)
(0.0324552 0.0045378 0)
(0.0380258 0.00490109 0)
(0.0379509 0.00434603 0)
(0.0423138 0.00415221 0)
(0.0421346 0.0030765 0)
(0.0467826 0.0038616 0)
(0.0462666 0.00102939 0)
(0.049826 0.00317051 0)
(0.051573 -0.000126992 0)
(0.0520291 0.0024888 0)
(0.0522144 -0.00051414 0)
(0.0455771 -0.00503105 0)
(0.02518 -0.000554378 0)
)
;

boundaryField
{
    movingWall
    {
        type            fixedValue;
        value           uniform (1 0 0);
    }
    fixedWalls
    {
        type            noSlip;
    }
    frontAndBack
    {
        type            empty;
    }
}


// ************************************************************************* //
