/*--------------------------------*- C++ -*----------------------------------*\
| =========                 |                                                 |
| \\      /  F ield         | OpenFOAM: The Open Source CFD Toolbox           |
|  \\    /   O peration     | Version:  5.x                                   |
|   \\  /    A nd           | Web:      www.OpenFOAM.org                      |
|    \\/     M anipulation  |                                                 |
\*---------------------------------------------------------------------------*/
FoamFile
{
    version     2.0;
    format      ascii;
    class       surfaceScalarField;
    location    "9.2";
    object      phi;
}
// * * * * * * * * * * * * * * * * * * * * * * * * * * * * * * * * * * * * * //

dimensions      [0 3 -1 0 0 0 0];

internalField   nonuniform List<scalar> 
760
(
-9.54575e-07
9.54575e-07
-1.54992e-06
5.9535e-07
-1.88129e-06
3.31364e-07
-2.08155e-06
2.00263e-07
-2.21269e-06
1.31139e-07
-2.30243e-06
8.97405e-08
-2.32488e-06
2.24531e-08
-2.24585e-06
-7.90382e-08
-2.30799e-06
6.21418e-08
-2.41634e-06
1.08349e-07
-2.34477e-06
-7.15639e-08
-2.35968e-06
1.49065e-08
-2.41133e-06
5.16471e-08
-2.34025e-06
-7.10741e-08
-2.35447e-06
1.42179e-08
-2.28262e-06
-7.18521e-08
-2.21311e-06
-6.95048e-08
-1.89154e-06
-3.21574e-07
-1.22304e-06
-6.68504e-07
-1.22304e-06
-5.9136e-07
1.54593e-06
-1.07529e-06
1.07928e-06
-1.28939e-06
5.45469e-07
-1.26963e-06
1.80502e-07
-1.1524e-06
1.39066e-08
-1.04565e-06
-1.70101e-08
-9.64524e-07
-5.86708e-08
-1.00108e-06
-4.24864e-08
-9.55153e-07
1.62195e-08
-8.96682e-07
4.98773e-08
-9.84655e-07
1.64093e-08
-9.67421e-07
-2.32703e-09
-9.63928e-07
4.81539e-08
-9.71108e-07
-6.38946e-08
-9.81867e-07
2.49778e-08
-9.51067e-07
-1.02652e-07
-9.84632e-07
-3.59402e-08
-1.034e-06
-2.72204e-07
-9.04956e-07
-7.9755e-07
-2.12799e-06
-4.83286e-07
2.02922e-06
-8.82876e-07
1.47887e-06
-1.09948e-06
7.6207e-07
-1.09042e-06
1.71442e-07
-9.11687e-07
-1.64823e-07
-7.23539e-07
-2.05158e-07
-5.83263e-07
-1.98947e-07
-4.67606e-07
-1.58143e-07
-3.47329e-07
-1.04057e-07
-2.57663e-07
-3.97885e-08
-2.09962e-07
-3.12924e-08
-1.73473e-07
-3.88153e-08
-1.37694e-07
1.23745e-08
-1.42889e-07
-5.86997e-08
-1.12277e-07
-5.63437e-09
-9.54483e-08
-1.19481e-07
-8.63438e-08
-4.50447e-08
-1.01246e-07
-2.57302e-07
-2.19185e-07
-6.79611e-07
-2.34718e-06
-3.67877e-07
2.3971e-06
-6.9519e-07
1.80618e-06
-9.21201e-07
9.88081e-07
-9.13579e-07
1.6382e-07
-7.44192e-07
-3.34211e-07
-5.57485e-07
-3.91864e-07
-4.07693e-07
-3.4874e-07
-2.92924e-07
-2.72912e-07
-2.12823e-07
-1.84159e-07
-1.30312e-07
-1.22299e-07
-9.32616e-08
-6.83432e-08
-6.36951e-08
-6.83819e-08
-5.13563e-08
3.57525e-11
-5.42335e-08
-5.58226e-08
-8.79221e-08
2.80542e-08
-1.24984e-07
-8.2419e-08
-1.72575e-07
2.54685e-09
-2.05753e-07
-2.24124e-07
-1.66971e-07
-7.18393e-07
-2.51415e-06
-2.80275e-07
2.67737e-06
-5.56921e-07
2.08283e-06
-7.34589e-07
1.16575e-06
-7.13818e-07
1.43049e-07
-5.88949e-07
-4.5908e-07
-4.47619e-07
-5.33194e-07
-3.39504e-07
-4.56854e-07
-2.6372e-07
-3.48695e-07
-2.00617e-07
-2.47262e-07
-1.37396e-07
-1.8552e-07
-8.8934e-08
-1.16805e-07
-4.59982e-08
-1.11318e-07
-2.12394e-09
-4.38385e-08
2.92475e-08
-8.7194e-08
5.28441e-08
4.45763e-09
8.06054e-08
-1.1018e-07
6.6737e-08
1.64153e-08
3.83971e-08
-1.95784e-07
-1.41787e-08
-6.65817e-07
-2.52833e-06
-1.81429e-07
2.8588e-06
-3.37157e-07
2.23855e-06
-4.33151e-07
1.26174e-06
-4.22821e-07
1.32719e-07
-3.33441e-07
-5.48459e-07
-2.23335e-07
-6.433e-07
-1.41202e-07
-5.38988e-07
-8.62828e-08
-4.03614e-07
-4.4532e-08
-2.89013e-07
-2.19924e-08
-2.0806e-07
-2.94683e-09
-1.3585e-07
-1.70289e-09
-1.12562e-07
7.22551e-09
-5.27669e-08
-2.84761e-09
-7.71209e-08
8.57649e-09
-6.96647e-09
-1.94788e-08
-8.2125e-08
9.98977e-10
-4.06249e-09
-5.80359e-09
-1.88982e-07
-9.32692e-09
-6.62293e-07
-2.53765e-06
-6.676e-08
2.92556e-06
-1.0113e-07
2.27292e-06
-1.00322e-07
1.26093e-06
-4.33268e-08
7.57239e-08
-4.31717e-09
-5.87469e-07
1.58228e-08
-6.6344e-07
2.74503e-08
-5.50616e-07
2.90826e-08
-4.05247e-07
3.40462e-08
-2.93977e-07
3.81084e-08
-2.12122e-07
4.80103e-08
-1.45752e-07
5.56568e-08
-1.20208e-07
6.20255e-08
-5.91356e-08
6.9123e-08
-8.42184e-08
6.16285e-08
5.27997e-10
5.89693e-08
-7.94658e-08
3.60398e-08
1.8867e-08
-1.49425e-09
-1.51448e-07
-2.88371e-08
-6.34951e-07
-2.56649e-06
2.27768e-07
2.69779e-06
2.87475e-07
2.21322e-06
3.27436e-07
1.22097e-06
3.79159e-07
2.4001e-08
3.30826e-07
-5.39136e-07
2.53739e-07
-5.86353e-07
1.71014e-07
-4.67891e-07
1.18077e-07
-3.52309e-07
8.65178e-08
-2.62417e-07
6.84162e-08
-1.9402e-07
5.59765e-08
-1.33313e-07
4.44439e-08
-1.08676e-07
4.13313e-08
-5.6023e-08
3.07009e-08
-7.3588e-08
3.8811e-08
-7.5821e-09
2.53134e-08
-6.59682e-08
2.35373e-08
2.06431e-08
2.47679e-08
-1.52678e-07
1.88533e-08
-6.29036e-07
-2.54764e-06
4.61934e-07
2.23586e-06
5.64661e-07
2.11049e-06
7.02917e-07
1.08272e-06
7.15329e-07
1.15894e-08
6.23598e-07
-4.47405e-07
5.10857e-07
-4.73612e-07
3.96346e-07
-3.5338e-07
3.03606e-07
-2.5957e-07
2.26373e-07
-1.85184e-07
1.78462e-07
-1.46109e-07
1.45065e-07
-9.99163e-08
1.26343e-07
-8.99535e-08
1.11307e-07
-4.09867e-08
9.33425e-08
-5.56236e-08
7.16975e-08
1.40629e-08
5.29896e-08
-4.72603e-08
3.39096e-08
3.97231e-08
-8.19949e-09
-1.10569e-07
-3.55509e-08
-6.01685e-07
-2.58319e-06
5.26858e-07
1.709e-06
8.35229e-07
1.80212e-06
1.0594e-06
8.58551e-07
9.95685e-07
7.52998e-08
7.3721e-07
-1.8893e-07
4.86686e-07
-2.23088e-07
3.27635e-07
-1.94329e-07
2.47758e-07
-1.79693e-07
1.9521e-07
-1.32636e-07
1.54555e-07
-1.05455e-07
1.21126e-07
-6.64868e-08
8.50108e-08
-5.38384e-08
7.74942e-08
-3.34701e-08
4.84324e-08
-2.65618e-08
7.21455e-08
-9.65018e-09
8.87974e-08
-6.39121e-08
6.26081e-08
6.59124e-08
5.86362e-08
-1.06597e-07
3.81839e-08
-5.81232e-07
-2.545e-06
5.20409e-07
1.18859e-06
9.72814e-07
1.34971e-06
1.15609e-06
6.75277e-07
1.08168e-06
1.49712e-07
9.19985e-07
-2.72397e-08
7.28017e-07
-3.11194e-08
5.48152e-07
-1.44644e-08
3.85871e-07
-1.74127e-08
2.78046e-07
-2.48105e-08
2.04332e-07
-3.17412e-08
1.76629e-07
-3.87837e-08
1.50122e-07
-2.73313e-08
1.40165e-07
-2.35128e-08
1.25154e-07
-1.15513e-08
8.32892e-08
3.2215e-08
2.84432e-08
-9.06618e-09
3.5444e-08
5.89117e-08
-6.65969e-09
-6.44936e-08
-4.26738e-08
-5.45218e-07
-2.58768e-06
7.37589e-07
4.51003e-07
1.08637e-06
1.00094e-06
1.08432e-06
6.77329e-07
8.96238e-07
3.37791e-07
7.56857e-07
1.12141e-07
7.02676e-07
2.30623e-08
6.0906e-07
7.91516e-08
4.9136e-07
1.00286e-07
3.57608e-07
1.08942e-07
2.6497e-07
6.08969e-08
1.79384e-07
4.68023e-08
1.23758e-07
2.82945e-08
6.84332e-08
3.18123e-08
-2.16383e-08
7.85202e-08
4.74601e-08
-3.68833e-08
-6.60477e-09
4.49987e-08
2.30514e-08
2.92554e-08
6.21893e-08
-1.03631e-07
2.56553e-08
-5.08684e-07
-2.56202e-06
6.28485e-07
-1.77481e-07
1.01041e-06
6.19013e-07
1.071e-06
6.16739e-07
8.18715e-07
5.90072e-07
4.76223e-07
4.54634e-07
2.25749e-07
2.73536e-07
1.16576e-07
1.88325e-07
7.56556e-08
1.41207e-07
9.34647e-08
9.11325e-08
7.10892e-08
8.32724e-08
1.14002e-07
3.88922e-09
3.27401e-08
1.09557e-07
1.28224e-07
-6.36718e-08
1.04509e-07
1.02235e-07
8.69456e-08
-1.93197e-08
7.19226e-08
6.00216e-08
9.8743e-08
2.43508e-09
1.15576e-07
-1.20464e-07
-1.12395e-08
-3.81869e-07
-2.57326e-06
2.67522e-07
-4.45003e-07
4.67514e-07
4.19021e-07
6.2902e-07
4.55232e-07
7.40858e-07
4.78235e-07
7.80624e-07
4.14868e-07
7.38146e-07
3.16014e-07
7.00015e-07
2.26455e-07
6.27309e-07
2.13913e-07
5.65342e-07
1.531e-07
4.71657e-07
1.76957e-07
4.21842e-07
5.37045e-08
3.51961e-07
1.79438e-07
2.18739e-07
6.95496e-08
1.47926e-07
1.73048e-07
-1.38229e-07
2.66835e-07
-4.03313e-07
3.25106e-07
-1.61619e-07
-2.39258e-07
-3.85103e-08
-2.43573e-07
2.59026e-08
-4.46282e-07
-2.54736e-06
2.43031e-07
-6.88033e-07
3.50822e-07
3.1123e-07
2.50401e-07
5.55653e-07
2.27798e-07
5.00838e-07
2.01673e-07
4.40992e-07
1.97158e-07
3.20529e-07
9.45091e-08
3.29105e-07
6.65739e-08
2.41848e-07
-4.38197e-08
2.63493e-07
-5.76615e-08
1.90799e-07
-1.60541e-07
1.56584e-07
-1.8863e-07
2.07527e-07
-1.93454e-07
7.43735e-08
-2.96072e-07
2.75665e-07
4.6279e-10
-2.96993e-08
1.2083e-07
2.04738e-07
2.1071e-08
-1.39499e-07
-2.11736e-07
-1.07667e-08
-8.62155e-08
-5.71802e-07
-2.63357e-06
1.25264e-08
-7.0056e-07
8.05985e-08
2.43157e-07
1.70182e-07
4.66069e-07
3.53322e-07
3.17698e-07
3.59956e-07
4.34359e-07
4.17621e-07
2.62864e-07
4.23912e-07
3.22813e-07
4.24635e-07
2.41125e-07
4.50331e-07
2.37797e-07
4.38381e-07
2.02749e-07
4.58058e-07
1.36907e-07
3.69767e-07
2.95818e-07
4.54007e-07
-9.8666e-09
3.70314e-07
3.59358e-07
3.05899e-07
3.47158e-08
4.10899e-07
9.97387e-08
2.73686e-07
-2.28559e-09
3.89676e-08
2.23951e-07
7.5575e-08
-6.08409e-07
-2.558e-06
-3.19557e-07
-3.81002e-07
-5.7057e-07
4.9417e-07
-3.60371e-07
2.5587e-07
-3.05722e-07
2.63049e-07
-2.50845e-07
3.79482e-07
-2.09109e-07
2.21127e-07
-1.37553e-07
2.51258e-07
-1.50046e-07
2.53618e-07
-8.41718e-08
1.71923e-07
-8.52292e-08
2.03807e-07
-7.73896e-08
1.29067e-07
3.85546e-08
1.79874e-07
-8.57759e-08
1.14464e-07
6.65278e-09
2.66929e-07
-7.36621e-08
1.15031e-07
-2.91428e-07
3.17505e-07
1.47429e-07
-4.41143e-07
2.57336e-07
1.14045e-07
4.26775e-08
-3.93751e-07
-2.51532e-06
-4.43207e-08
-3.36682e-07
2.65337e-07
1.84512e-07
3.03211e-07
2.17997e-07
2.95961e-07
2.70299e-07
3.79193e-07
2.9625e-07
4.15197e-07
1.85123e-07
4.61688e-07
2.04767e-07
5.23866e-07
1.9144e-07
5.31055e-07
1.64733e-07
5.84227e-07
1.50636e-07
5.38111e-07
1.75182e-07
5.65314e-07
1.52672e-07
5.86812e-07
9.29661e-08
4.96976e-07
3.56765e-07
6.77633e-07
-6.56264e-08
5.63205e-07
4.31933e-07
4.29242e-07
-3.0718e-07
2.84022e-07
2.59265e-07
2.41856e-07
-3.51584e-07
-2.27347e-06
-7.36672e-07
3.99991e-07
-8.5449e-07
3.0233e-07
-8.56988e-07
2.20494e-07
-7.72606e-07
1.85918e-07
-6.76878e-07
2.00522e-07
-6.16313e-07
1.24558e-07
-5.76926e-07
1.6538e-07
-5.25154e-07
1.39668e-07
-4.74237e-07
1.13816e-07
-4.43043e-07
1.19442e-07
-3.70088e-07
1.02227e-07
-3.0956e-07
9.21436e-08
-2.7796e-07
6.13656e-08
-9.4429e-08
1.73234e-07
-2.26747e-07
6.66914e-08
5.38447e-08
1.51342e-07
-2.23629e-07
-2.97065e-08
9.75755e-08
-6.19401e-08
7.31692e-07
-9.85701e-07
-1.54177e-06
3.99991e-07
7.02321e-07
9.22815e-07
1.10873e-06
1.30925e-06
1.43381e-06
1.59919e-06
1.73886e-06
1.85268e-06
1.97212e-06
2.07435e-06
2.16649e-06
2.22785e-06
2.40109e-06
2.46778e-06
2.61912e-06
2.58942e-06
2.52748e-06
1.54177e-06
)
;

boundaryField
{
    movingWall
    {
        type            calculated;
        value           uniform 0;
    }
    fixedWalls
    {
        type            calculated;
        value           uniform 0;
    }
    frontAndBack
    {
        type            empty;
        value           nonuniform 0();
    }
}


// ************************************************************************* //
