/*--------------------------------*- C++ -*----------------------------------*\
| =========                 |                                                 |
| \\      /  F ield         | OpenFOAM: The Open Source CFD Toolbox           |
|  \\    /   O peration     | Version:  5.x                                   |
|   \\  /    A nd           | Web:      www.OpenFOAM.org                      |
|    \\/     M anipulation  |                                                 |
\*---------------------------------------------------------------------------*/
FoamFile
{
    version     2.0;
    format      ascii;
    class       surfaceScalarField;
    location    "17.4";
    object      phi;
}
// * * * * * * * * * * * * * * * * * * * * * * * * * * * * * * * * * * * * * //

dimensions      [0 3 -1 0 0 0 0];

internalField   nonuniform List<scalar> 
760
(
-1.32415e-06
1.32415e-06
-2.24799e-06
9.23842e-07
-2.65508e-06
4.07085e-07
-2.89713e-06
2.42049e-07
-2.97374e-06
7.66102e-08
-3.06043e-06
8.66939e-08
-3.07839e-06
1.79553e-08
-3.14184e-06
6.34576e-08
-3.14163e-06
-2.16445e-10
-3.18622e-06
4.459e-08
-3.17196e-06
-1.42617e-08
-3.18941e-06
1.74538e-08
-3.13982e-06
-4.95931e-08
-3.09251e-06
-4.73015e-08
-3.01518e-06
-7.73335e-08
-2.89614e-06
-1.19041e-07
-2.7592e-06
-1.36939e-07
-2.30631e-06
-4.52887e-07
-1.52861e-06
-7.77701e-07
-1.52861e-06
-8.01771e-07
2.12592e-06
-1.20071e-06
1.32278e-06
-1.36971e-06
5.7608e-07
-1.38467e-06
2.57016e-07
-1.39505e-06
8.69826e-08
-1.3856e-06
7.72517e-08
-1.38713e-06
1.94842e-08
-1.37851e-06
5.48379e-08
-1.40001e-06
2.12837e-08
-1.40826e-06
5.2836e-08
-1.45779e-06
3.52672e-08
-1.47146e-06
3.11213e-08
-1.47108e-06
-4.99722e-08
-1.42902e-06
-8.93631e-08
-1.40524e-06
-1.01112e-07
-1.36141e-06
-1.62863e-07
-1.31008e-06
-1.88273e-07
-1.33858e-06
-4.24383e-07
-1.09184e-06
-1.02445e-06
-2.62045e-06
-3.72682e-07
2.4986e-06
-5.73682e-07
1.52378e-06
-5.57722e-07
5.6012e-07
-5.20669e-07
2.19963e-07
-5.14736e-07
8.10493e-08
-5.0485e-07
6.73657e-08
-5.37733e-07
5.23669e-08
-5.68557e-07
8.56622e-08
-6.24039e-07
7.67654e-08
-6.64279e-07
9.30756e-08
-6.91065e-07
6.20531e-08
-6.65756e-07
5.8128e-09
-6.50671e-07
-6.50569e-08
-6.70171e-07
-6.98635e-08
-6.40191e-07
-1.31092e-07
-6.26997e-07
-1.76057e-07
-3.42362e-07
-4.72908e-07
-2.24214e-07
-5.42531e-07
-3.56024e-07
-8.92638e-07
-2.97647e-06
-2.09481e-07
2.70808e-06
-2.55041e-07
1.56934e-06
-2.00861e-07
5.0594e-07
-1.61301e-07
1.80403e-07
-1.63123e-07
8.2871e-08
-1.78602e-07
8.28452e-08
-2.2325e-07
9.70144e-08
-2.5666e-07
1.19073e-07
-2.93237e-07
1.13343e-07
-3.03826e-07
1.03665e-07
-2.85268e-07
4.34945e-08
-2.96769e-07
1.73139e-08
-2.84764e-07
-7.70618e-08
-3.64185e-07
9.55708e-09
-5.25863e-07
3.05867e-08
-6.25192e-07
-7.67288e-08
-6.39542e-07
-4.58559e-07
-4.91691e-07
-6.90382e-07
-2.53659e-07
-1.13067e-06
-3.23013e-06
-5.07011e-08
2.75879e-06
-6.54727e-08
1.58411e-06
-2.87645e-08
4.69232e-07
1.4494e-08
1.37145e-07
-8.52413e-09
1.05889e-07
-5.00436e-08
1.24365e-07
-8.38356e-08
1.30806e-07
-1.11456e-07
1.46693e-07
-1.30956e-07
1.32843e-07
-1.41413e-07
1.14122e-07
-1.49787e-07
5.18682e-08
-1.58865e-07
2.63923e-08
-1.27964e-07
-1.07963e-07
-2.47923e-07
1.29516e-07
-2.70783e-07
5.34467e-08
-2.67721e-07
-7.97911e-08
-2.22758e-07
-5.03522e-07
-1.2698e-07
-7.8616e-07
-7.65352e-08
-1.18111e-06
-3.30667e-06
-3.52756e-08
2.79406e-06
-1.55824e-08
1.56442e-06
1.08269e-08
4.42822e-07
2.22015e-09
1.45752e-07
-4.02317e-08
1.48341e-07
-5.73393e-08
1.41472e-07
-7.81256e-08
1.51593e-07
-1.12465e-07
1.81032e-07
-1.23611e-07
1.43989e-07
-1.08412e-07
9.8922e-08
-1.71647e-07
1.15104e-07
-2.53438e-07
1.08183e-07
-9.91833e-08
-2.62218e-07
-8.22933e-08
1.12626e-07
-5.04702e-08
2.16236e-08
-5.76097e-08
-7.26516e-08
-2.64726e-07
-2.96406e-07
-2.38215e-07
-8.1267e-07
-8.47629e-08
-1.33457e-06
-3.39143e-06
6.25825e-08
2.73148e-06
8.47068e-08
1.5423e-06
7.71935e-08
4.50336e-07
4.72981e-08
1.75647e-07
4.70419e-08
1.48597e-07
1.28413e-08
1.75673e-07
-2.95029e-08
1.93937e-07
-6.73808e-08
2.1891e-07
-9.87477e-08
1.75356e-07
-1.0711e-07
1.07284e-07
-7.22387e-08
8.02326e-08
-4.90007e-08
8.49453e-08
9.1154e-08
-4.02372e-07
-7.4309e-08
2.78089e-07
-5.29414e-08
2.56069e-10
1.21458e-08
-1.37739e-07
-9.71396e-08
-1.8712e-07
-2.32531e-08
-8.86557e-07
3.12788e-08
-1.3891e-06
-3.36015e-06
3.67243e-08
2.69475e-06
7.17132e-08
1.50731e-06
1.08891e-07
4.13157e-07
8.62999e-08
1.98239e-07
5.21298e-08
1.82767e-07
1.86322e-08
2.0917e-07
-6.22864e-08
2.74856e-07
-7.68488e-08
2.33473e-07
-5.1796e-08
1.50303e-07
-2.38537e-07
2.94025e-07
-4.11644e-07
2.5334e-07
-1.72105e-07
-1.54594e-07
-2.21839e-09
-5.72259e-07
-1.47017e-07
4.22888e-07
-2.47288e-07
1.00527e-07
-1.76272e-07
-2.08755e-07
-1.59009e-07
-2.04383e-07
-1.30227e-07
-9.15339e-07
-1.96482e-08
-1.49968e-06
-3.3798e-06
7.2691e-08
2.62206e-06
1.00824e-07
1.47918e-06
7.55905e-08
4.38391e-07
3.69133e-08
2.36916e-07
4.83507e-08
1.7133e-07
1.14792e-07
1.42729e-07
1.59917e-07
2.29732e-07
2.40072e-07
1.53317e-07
2.6261e-07
1.27765e-07
1.00467e-07
4.56168e-07
-1.14291e-07
4.68098e-07
-5.82443e-08
-2.1064e-07
2.77019e-08
-6.58205e-07
-1.03923e-07
5.54513e-07
-1.47982e-08
1.14016e-08
9.77022e-08
-3.21255e-07
5.58134e-08
-1.62494e-07
1.30771e-07
-9.90296e-07
1.99001e-08
-1.38881e-06
-3.3599e-06
7.63017e-08
2.54576e-06
1.3286e-07
1.42262e-06
1.45381e-07
4.2587e-07
1.84842e-07
1.97455e-07
1.41737e-07
2.14435e-07
1.48519e-07
1.35947e-07
1.76759e-07
2.01492e-07
-1.31521e-08
3.43228e-07
-2.98582e-07
4.13195e-07
-4.17584e-07
5.75169e-07
-3.25681e-07
3.76196e-07
-2.89957e-07
-2.46364e-07
-3.11986e-07
-6.36176e-07
-4.32084e-07
6.74611e-07
-1.08147e-07
-3.12536e-07
1.5605e-07
-5.85453e-07
2.8846e-07
-2.94904e-07
2.93265e-07
-9.95101e-07
-1.49351e-09
-1.09405e-06
-3.36139e-06
8.35924e-08
2.46217e-06
1.02311e-07
1.4039e-06
1.64096e-07
3.64085e-07
2.12508e-07
1.49043e-07
1.59222e-07
2.67721e-07
2.0899e-07
8.61788e-08
2.23897e-07
1.86585e-07
4.09978e-08
5.26127e-07
-1.83307e-07
6.37499e-07
-3.404e-07
7.32263e-07
-3.42679e-07
3.78475e-07
-4.29566e-07
-1.59478e-07
-3.36814e-07
-7.28928e-07
-6.63483e-08
4.04146e-07
1.67356e-07
-5.4624e-07
2.81819e-07
-6.99916e-07
1.68414e-07
-1.81499e-07
1.53604e-07
-9.8029e-07
8.53476e-08
-1.02579e-06
-3.27605e-06
5.56459e-08
2.40652e-06
1.05935e-07
1.35361e-06
6.65141e-08
4.03507e-07
-5.7391e-08
2.72948e-07
-1.79222e-07
3.89552e-07
-1.41781e-07
4.87384e-08
-6.17513e-08
1.06555e-07
5.65254e-08
4.0785e-07
5.37942e-08
6.4023e-07
1.36244e-08
7.72433e-07
1.6727e-08
3.75372e-07
-1.67114e-07
2.43625e-08
-3.57106e-07
-5.38935e-07
-5.93566e-08
1.06396e-07
5.70903e-09
-6.11306e-07
-2.14262e-07
-4.79945e-07
-1.08982e-07
-2.86779e-07
-1.01369e-07
-9.87903e-07
-5.66181e-08
-1.07054e-06
-3.33267e-06
9.20974e-08
2.31443e-06
1.25547e-07
1.32016e-06
2.46926e-09
5.26584e-07
-1.2937e-07
4.04786e-07
-1.29162e-07
3.89344e-07
-2.13456e-07
1.33032e-07
-3.25682e-07
2.18781e-07
-2.21826e-07
3.03994e-07
-4.55075e-08
4.63912e-07
5.72566e-08
6.69669e-07
4.34628e-08
3.89166e-07
6.32853e-08
4.54e-09
-1.49439e-07
-3.26211e-07
1.07116e-07
-1.50159e-07
1.89061e-07
-6.93251e-07
-1.25315e-07
-1.65569e-07
1.00956e-07
-5.13051e-07
1.65259e-08
-9.03472e-07
-3.06637e-08
-1.02335e-06
-3.36333e-06
6.79505e-08
2.24648e-06
1.69103e-07
1.21901e-06
1.48152e-07
5.47535e-07
1.26433e-07
4.26505e-07
7.25145e-08
4.43263e-07
1.03703e-07
1.01844e-07
7.94734e-08
2.4301e-07
2.8894e-08
3.54573e-07
9.05729e-08
4.02233e-07
2.23004e-07
5.37237e-07
2.45995e-07
3.66176e-07
2.85488e-07
-3.49537e-08
1.74352e-07
-2.15075e-07
3.34927e-07
-3.10734e-07
3.9236e-07
-7.50684e-07
4.63194e-07
-2.36402e-07
6.08784e-07
-6.58641e-07
4.29834e-07
-7.24523e-07
1.63314e-07
-7.56832e-07
-3.20002e-06
6.96892e-08
2.17679e-06
1.12441e-07
1.17626e-06
9.75687e-08
5.62407e-07
3.66678e-07
1.57396e-07
3.96682e-07
4.13259e-07
4.80998e-07
1.7528e-08
5.48576e-07
1.75432e-07
5.77512e-07
3.25638e-07
9.21929e-07
5.78166e-08
8.61628e-07
5.97538e-07
1.04469e-06
1.83114e-07
9.60366e-07
4.93704e-08
9.95119e-07
-2.49828e-07
1.20194e-06
-5.17551e-07
9.6729e-07
-5.16037e-07
9.79986e-07
-2.49099e-07
4.78567e-07
-1.57222e-07
-7.51629e-08
-1.70792e-07
-4.92269e-08
-7.82768e-07
-3.24924e-06
1.36284e-07
2.0405e-06
2.26466e-07
1.08607e-06
2.09181e-07
5.79692e-07
5.34314e-08
3.13146e-07
3.10837e-07
1.55853e-07
3.67391e-07
-3.90261e-08
3.62213e-07
1.8061e-07
7.8102e-07
-9.31686e-08
1.1082e-06
-2.69362e-07
1.29549e-06
4.10249e-07
1.31115e-06
1.6745e-07
1.37002e-06
-9.50092e-09
1.0661e-06
5.40959e-08
7.71057e-07
-2.2251e-07
4.79625e-07
-2.24605e-07
-1.88656e-07
4.19182e-07
-3.39294e-07
-6.58447e-09
-2.41573e-08
-4.85929e-07
1.21618e-08
-8.19088e-07
-3.23708e-06
1.33096e-07
1.90741e-06
1.22626e-07
1.09654e-06
2.4182e-07
4.60499e-07
2.41534e-07
3.13432e-07
2.98388e-07
9.89995e-08
3.38486e-07
-7.9124e-08
6.67883e-07
-1.48787e-07
1.00572e-06
-4.31011e-07
9.99414e-07
-2.63052e-07
1.26522e-06
1.44443e-07
1.09533e-06
3.37338e-07
1.01259e-06
7.32391e-08
6.60167e-07
4.06521e-07
2.80856e-08
4.09572e-07
-5.1769e-08
-1.4475e-07
-5.19945e-08
4.19408e-07
6.15531e-07
-6.7411e-07
4.02538e-07
-2.72936e-07
8.6217e-08
-5.02766e-07
-3.15086e-06
3.76278e-07
1.53113e-06
5.69119e-07
9.03702e-07
5.05162e-07
5.24455e-07
6.22694e-07
1.959e-07
7.23691e-07
-1.99806e-09
8.17667e-07
-1.73099e-07
9.52644e-07
-2.83765e-07
8.97596e-07
-3.75962e-07
7.46591e-07
-1.12047e-07
9.03673e-07
-1.26391e-08
1.0757e-06
1.65315e-07
1.11199e-06
3.6948e-08
1.37014e-06
1.48368e-07
1.24954e-06
5.30168e-07
1.07194e-06
3.28526e-08
1.03261e-06
4.58739e-07
7.49073e-07
-3.90573e-07
5.33304e-08
4.22807e-07
3.07501e-07
-7.56937e-07
-2.84336e-06
4.58094e-07
1.07303e-06
7.2972e-07
6.32076e-07
8.88814e-07
3.65361e-07
8.54599e-07
2.30115e-07
6.48002e-07
2.04599e-07
3.57507e-07
1.17396e-07
-1.00987e-07
1.74729e-07
-6.20621e-07
1.43672e-07
-8.43666e-07
1.10998e-07
-9.2326e-07
6.69555e-08
-7.9741e-07
3.94642e-08
-7.34676e-07
-2.57853e-08
-6.04504e-07
1.81952e-08
-2.01524e-07
1.27188e-07
-1.56139e-07
-1.25327e-08
1.49173e-07
1.53427e-07
-1.88167e-07
-5.3232e-08
2.79376e-07
-4.47373e-08
7.9027e-07
-1.26783e-06
-2.05309e-06
1.07303e-06
1.70511e-06
2.07047e-06
2.30059e-06
2.50519e-06
2.62258e-06
2.79731e-06
2.94098e-06
3.05198e-06
3.11894e-06
3.1584e-06
3.13261e-06
3.15081e-06
3.278e-06
3.26547e-06
3.41889e-06
3.36566e-06
3.32092e-06
2.05309e-06
)
;

boundaryField
{
    movingWall
    {
        type            calculated;
        value           uniform 0;
    }
    fixedWalls
    {
        type            calculated;
        value           uniform 0;
    }
    frontAndBack
    {
        type            empty;
        value           nonuniform 0();
    }
}


// ************************************************************************* //
