/*--------------------------------*- C++ -*----------------------------------*\
| =========                 |                                                 |
| \\      /  F ield         | OpenFOAM: The Open Source CFD Toolbox           |
|  \\    /   O peration     | Version:  5.x                                   |
|   \\  /    A nd           | Web:      www.OpenFOAM.org                      |
|    \\/     M anipulation  |                                                 |
\*---------------------------------------------------------------------------*/
FoamFile
{
    version     2.0;
    format      ascii;
    class       volVectorField;
    location    "18.2";
    object      U;
}
// * * * * * * * * * * * * * * * * * * * * * * * * * * * * * * * * * * * * * //

dimensions      [0 1 -1 0 0 0 0];

internalField   nonuniform List<vector> 
400
(
(-0.0185014 0.0116464 0)
(-0.0435565 0.00617764 0)
(-0.0513562 0.00309971 0)
(-0.0583073 0.000208286 0)
(-0.0586595 -0.000598886 0)
(-0.0615652 -0.000842655 0)
(-0.0599458 -0.00146889 0)
(-0.0623399 -0.000547075 0)
(-0.0602973 -0.0012241 0)
(-0.0624966 -0.000137439 0)
(-0.059868 -0.00101559 0)
(-0.0616722 -0.000479636 0)
(-0.0600254 -0.001319 0)
(-0.0630349 -0.000632923 0)
(-0.0612185 -0.00161416 0)
(-0.0627012 -0.00155163 0)
(-0.0569257 -0.00399934 0)
(-0.0557612 -0.00692934 0)
(-0.0447877 -0.0123647 0)
(-0.00800709 -0.0195672 0)
(-0.0124632 0.0390215 0)
(-0.021826 0.0268525 0)
(-0.0249909 0.0118051 0)
(-0.0288384 0.00705432 0)
(-0.0262176 0.00224168 0)
(-0.0309071 0.00222195 0)
(-0.0261057 0.000561753 0)
(-0.0323877 0.00144852 0)
(-0.0266434 3.81657e-05 0)
(-0.0341465 0.000949018 0)
(-0.0257553 -0.000197603 0)
(-0.0330351 0.000905324 0)
(-0.0227372 0.000349716 0)
(-0.0346659 0.00162271 0)
(-0.0238597 0.000577884 0)
(-0.0362664 -0.000782201 0)
(-0.0244065 -0.0037383 0)
(-0.0340895 -0.0148132 0)
(-0.0318775 -0.0265277 0)
(-0.0075012 -0.0476822 0)
(-0.00536038 0.049908 0)
(-0.0109799 0.0298518 0)
(-0.0102674 0.0130466 0)
(-0.0113855 0.00426293 0)
(-0.0105308 0.00101469 0)
(-0.0127205 -0.000193569 0)
(-0.0104839 -0.000702041 0)
(-0.0158987 0.000114772 0)
(-0.0118404 -0.000357851 0)
(-0.0184564 -0.000518976 0)
(-0.0124366 -0.00155177 0)
(-0.0178034 -0.00207557 0)
(-0.0127174 -0.000716441 0)
(-0.0182577 -1.19476e-05 0)
(-0.0145014 0.00151146 0)
(-0.0129908 -0.000618904 0)
(-0.01302 -0.00282894 0)
(-0.000988284 0.000784434 0)
(-0.0112008 -0.019803 0)
(-0.00170546 -0.0573748 0)
(-0.00515328 0.054295 0)
(-0.0044407 0.0335906 0)
(-0.00489018 0.0113432 0)
(-0.00419294 0.00664916 0)
(-0.00306031 0.00247623 0)
(-0.00552094 0.00248455 0)
(-0.00362624 0.00274722 0)
(-0.00783932 0.00299589 0)
(-0.00463856 0.0023075 0)
(-0.00884835 0.00135302 0)
(-0.00525012 -0.000333094 0)
(-0.00964438 -5.60674e-06 0)
(-0.00783156 0.000977306 0)
(-0.00926751 0.00191171 0)
(-0.0122392 -0.00268437 0)
(-0.0131585 -0.00640729 0)
(-0.0151337 -0.0164032 0)
(-0.00815111 -0.0190405 0)
(-0.00771461 -0.0279305 0)
(-0.000217362 -0.0627187 0)
(-0.00115654 0.0568368 0)
(-0.00193987 0.0326759 0)
(-0.00182877 0.0109465 0)
(-0.00106683 0.00375564 0)
(5.16307e-05 0.00185631 0)
(-0.00174598 0.00107264 0)
(-0.00129923 0.00150794 0)
(-0.00301172 0.00138245 0)
(-0.00212722 0.00101032 0)
(-0.00422524 0.000104702 0)
(-0.00382361 5.36177e-05 0)
(-0.00468543 0.000808454 0)
(-0.00296594 -0.000519856 0)
(-0.00166108 0.0023291 0)
(-0.00617292 0.00703813 0)
(0.000101722 0.000824553 0)
(-0.00698696 -0.00254565 0)
(0.0010206 -0.0116286 0)
(-0.00172151 -0.0207319 0)
(0.000870583 -0.0649815 0)
(-0.00333313 0.057747 0)
(5.34348e-05 0.0340097 0)
(-0.00324527 0.0107802 0)
(0.000409614 0.00440078 0)
(-0.00114307 0.00322566 0)
(-0.00149106 0.00386524 0)
(-0.000897269 0.00363082 0)
(-0.00214547 0.00348778 0)
(-0.00197102 0.00362109 0)
(-0.00174926 0.00252626 0)
(-0.00287709 0.000354356 0)
(-0.00689715 -0.00115591 0)
(-0.00550843 -0.00231925 0)
(0.00228194 0.00501126 0)
(-0.00376408 -0.00275038 0)
(0.00740706 -0.00584527 0)
(-0.00382878 -0.0176788 0)
(-0.001739 -0.0237994 0)
(-0.00387033 -0.0306664 0)
(0.00250536 -0.0665377 0)
(-0.00045084 0.0579559 0)
(-0.000395897 0.0332175 0)
(-0.000395192 0.00801623 0)
(-0.00128887 0.00176238 0)
(-0.000448102 0.00280717 0)
(-0.000109995 0.000859122 0)
(-0.00036172 0.0017022 0)
(-0.000125703 0.00264074 0)
(-0.0019238 0.000565626 0)
(-0.00184623 0.000855529 0)
(-0.00199564 0.00568651 0)
(-0.00030698 0.00352933 0)
(-0.000851314 -0.00823036 0)
(0.0041531 -0.000117854 0)
(-0.00582799 0.0025018 0)
(0.00957832 -0.0013078 0)
(-0.00295292 0.00875832 0)
(0.00786197 -0.0146627 0)
(-0.00135237 -0.0200162 0)
(0.00203494 -0.0669647 0)
(-0.00206312 0.0590053 0)
(0.00158548 0.0343048 0)
(-0.00171989 0.0133471 0)
(0.00189857 0.00510106 0)
(-0.000367441 0.00278722 0)
(0.000961432 0.00410253 0)
(-0.00145248 0.00449006 0)
(-0.00291969 0.00476425 0)
(-0.00313631 0.00656916 0)
(-0.00417945 0.00224695 0)
(-0.00826614 -0.00110038 0)
(-0.0014516 -0.0033591 0)
(-0.000390321 -0.00576544 0)
(-0.00119217 0.00750265 0)
(-0.008841 -0.00772548 0)
(0.00332922 -0.00903988 0)
(-0.00370168 -0.0134851 0)
(0.00806987 -0.0258633 0)
(-0.0048491 -0.0277555 0)
(0.00399774 -0.0662583 0)
(-0.00032526 0.0574445 0)
(-0.000132957 0.0329815 0)
(0.000303977 0.00596799 0)
(-0.000473261 0.000133965 0)
(-0.00108402 0.00270592 0)
(0.00109972 0.00168689 0)
(0.00157903 0.00435761 0)
(0.00320425 0.00460835 0)
(0.00435965 0.000839176 0)
(0.0112294 0.00406766 0)
(-0.000365547 0.00443756 0)
(0.00288556 -0.00466212 0)
(-0.00596199 -0.0098076 0)
(-0.000878526 0.011469 0)
(-0.0118079 -0.00114502 0)
(0.0123695 -0.00825794 0)
(-0.00298161 0.0037586 0)
(0.00543469 -0.0147903 0)
(-0.00215113 -0.0115043 0)
(0.00389725 -0.0665424 0)
(-0.00128241 0.0597026 0)
(0.00139553 0.0335926 0)
(-0.000226945 0.014484 0)
(0.00110097 0.00705977 0)
(0.00161715 0.00198415 0)
(0.00217826 0.00141767 0)
(0.00193672 0.00409274 0)
(0.00548844 0.00114035 0)
(0.000509849 0.000295154 0)
(0.000814253 0.0076729 0)
(-0.0056474 0.00908869 0)
(-0.00220435 0.00109248 0)
(-0.00451303 0.00136118 0)
(-0.00773889 0.00907162 0)
(-0.00943086 -0.0225776 0)
(-0.00408464 -0.0157949 0)
(-0.00555006 -0.00592573 0)
(-0.00332396 -0.0281552 0)
(-0.00659747 -0.027366 0)
(0.00567912 -0.0688823 0)
(-0.000266046 0.0565163 0)
(0.000484377 0.031518 0)
(0.00160752 0.0054285 0)
(0.00255928 -0.00248277 0)
(0.00480022 0.00123743 0)
(0.00328286 0.000926992 0)
(0.00666133 0.00074617 0)
(0.00623828 0.00597227 0)
(-0.00240383 0.0049804 0)
(-0.0043471 0.0101517 0)
(-0.00506121 0.00425423 0)
(-0.00330179 -0.00495555 0)
(-0.00197339 -0.00822416 0)
(-9.9969e-05 0.0180435 0)
(0.00177015 -0.00674417 0)
(-0.00540767 -0.0134805 0)
(-0.00395608 0.00237913 0)
(0.00131188 -0.0163384 0)
(-0.00565491 -0.018653 0)
(0.00432038 -0.0678608 0)
(-8.38854e-05 0.0599199 0)
(0.00216488 0.0337926 0)
(-7.91409e-05 0.0133779 0)
(0.00502447 0.00466765 0)
(-4.21933e-05 0.00201211 0)
(0.000595081 -0.00098355 0)
(0.00171444 0.00191273 0)
(0.00698531 0.00891784 0)
(0.00333854 0.0105208 0)
(0.0015473 0.0102561 0)
(0.000866832 0.00809908 0)
(-0.000934506 0.00082525 0)
(-0.00518248 -0.00255973 0)
(-0.00621749 0.0110885 0)
(0.00755561 -0.0134487 0)
(-0.0052301 -0.00927695 0)
(-0.00119067 -0.00864486 0)
(0.0155494 -0.0267568 0)
(-0.0049749 -0.031395 0)
(0.00575716 -0.067618 0)
(4.8366e-05 0.0545095 0)
(0.000809494 0.0299083 0)
(0.00301705 0.000555933 0)
(-0.00287363 -0.00311451 0)
(-0.00259284 0.00509673 0)
(-0.00120523 -0.00116457 0)
(-0.00400894 -0.00606238 0)
(-0.00101244 0.0062816 0)
(0.00436759 0.00858469 0)
(0.00465129 0.0142616 0)
(0.00494669 0.0073092 0)
(-0.00118475 0.00128827 0)
(0.00178219 -0.00398821 0)
(-0.0102804 0.00304647 0)
(0.0109739 -0.0119229 0)
(0.00105613 -0.00875039 0)
(0.00445579 -0.0186235 0)
(0.00777212 -0.0144225 0)
(-0.00450015 -0.00680708 0)
(0.00690944 -0.0657313 0)
(0.0012824 0.0570087 0)
(0.00359644 0.0324241 0)
(0.00200181 0.0178116 0)
(0.00368248 0.0111616 0)
(-0.000622457 0.00206993 0)
(0.000800877 -0.000384755 0)
(-0.00315516 0.00271866 0)
(-0.000291283 0.00186705 0)
(0.00208937 0.00533758 0)
(0.00344299 0.0111997 0)
(0.010756 0.0115704 0)
(0.00292793 0.00431127 0)
(0.00321356 0.00490472 0)
(0.000559778 0.00347642 0)
(0.00850875 -0.0197854 0)
(0.00239901 -0.00297848 0)
(0.00888731 -0.00972361 0)
(0.00342181 -0.0204821 0)
(-0.00684549 -0.0251315 0)
(0.00813957 -0.069638 0)
(0.000652844 0.0509691 0)
(0.00319873 0.0295262 0)
(0.00429565 0.000778184 0)
(0.000572743 -0.00233586 0)
(0.0122509 0.00611541 0)
(0.00149843 0.00240986 0)
(0.0149761 -0.00628171 0)
(0.00843784 -0.000100453 0)
(0.0057007 0.00400578 0)
(0.0162918 0.00385659 0)
(0.0131963 0.00951765 0)
(0.0206024 0.00752559 0)
(0.0140951 -0.000165566 0)
(0.0221309 -0.00543786 0)
(0.0160993 -0.013117 0)
(0.0247117 -0.0154689 0)
(0.0109154 -0.0192516 0)
(0.00477805 -0.000698502 0)
(-0.00747938 -0.0171577 0)
(0.00705113 -0.0651974 0)
(0.00234821 0.0511853 0)
(0.00575959 0.0283073 0)
(0.00780243 0.0200477 0)
(0.00823207 0.00399082 0)
(0.00047093 0.00299653 0)
(0.0148013 -0.0026575 0)
(0.00886996 -0.00546784 0)
(0.00921346 0.0124142 0)
(0.0139361 -0.0022607 0)
(0.0165495 0.00277367 0)
(0.0184696 0.00914127 0)
(0.0214389 0.00605799 0)
(0.019742 0.00456015 0)
(0.0265743 0.000763807 0)
(0.00771368 -0.0154595 0)
(0.0186599 0.00304589 0)
(-0.0192273 0.0146828 0)
(0.0156426 -0.00556313 0)
(-0.00339663 -0.0174896 0)
(0.0116813 -0.0659752 0)
(0.00111824 0.0439001 0)
(0.00844117 0.0240303 0)
(0.0031937 0.0025073 0)
(0.0128949 0.00214049 0)
(0.00288108 -0.00111356 0)
(0.00884969 -0.00450521 0)
(0.00855877 -0.00288675 0)
(0.00565992 -0.00160592 0)
(0.0318963 -0.00343777 0)
(0.0157939 -0.0049986 0)
(0.0296125 0.00633919 0)
(0.0135536 0.000708527 0)
(0.0277358 -0.00242208 0)
(0.0132976 0.000891951 0)
(0.0148476 -0.00454655 0)
(-0.00493371 0.00448257 0)
(0.00583377 -0.0137044 0)
(0.0181974 -0.0222635 0)
(-0.00867398 -0.0192315 0)
(0.00989183 -0.0650709 0)
(0.0030386 0.0404242 0)
(0.0119102 0.0238581 0)
(0.0173451 0.0139861 0)
(0.00879199 0.00650363 0)
(0.0216586 0.00455997 0)
(0.00723005 -0.0057631 0)
(0.0269048 -0.00648048 0)
(0.00823567 -0.0123271 0)
(0.0325026 -0.00801341 0)
(0.00321504 0.00356113 0)
(0.0331962 0.0126297 0)
(0.0126879 0.0115139 0)
(0.0291698 0.00468871 0)
(0.0182263 0.0147134 0)
(0.0285663 0.00205034 0)
(0.0178744 0.0160641 0)
(0.0249376 -0.00544295 0)
(0.00923943 0.01053 0)
(-0.000739664 0.000966066 0)
(0.0160392 -0.0616897 0)
(0.00405971 0.0291808 0)
(0.0161266 0.0153748 0)
(0.0177866 0.0052883 0)
(0.0206449 -2.25735e-05 0)
(0.0165692 -0.001442 0)
(0.0150068 -0.00448712 0)
(0.00231024 -0.00469173 0)
(-0.00618444 -0.00315949 0)
(-0.0222926 -0.00429982 0)
(-0.0203817 -0.00419255 0)
(-0.0185048 -0.00164917 0)
(-0.0111168 -0.00312341 0)
(-0.01545 -0.00451621 0)
(-0.00642215 0.00378541 0)
(-0.00619733 -0.00920232 0)
(-0.00630607 0.00869247 0)
(0.00987289 -0.00785054 0)
(-0.0125759 -0.00136804 0)
(0.0223703 -0.0352618 0)
(0.0143558 -0.0583482 0)
(0.00783664 0.0200858 0)
(0.0350301 0.0127688 0)
(0.0372655 0.0104248 0)
(0.0492023 0.00770811 0)
(0.0475216 0.0085066 0)
(0.0541772 0.00746573 0)
(0.0545868 0.00979226 0)
(0.0567055 0.00950351 0)
(0.060529 0.00909292 0)
(0.0606607 0.00557725 0)
(0.0656129 0.00436259 0)
(0.0604138 0.00396288 0)
(0.0679489 0.00553255 0)
(0.061337 0.00180763 0)
(0.0679227 0.00486181 0)
(0.0649773 0.00106175 0)
(0.0651832 0.00277199 0)
(0.0671298 -0.000248793 0)
(0.0536541 -0.00460884 0)
(0.0374439 -0.00974312 0)
)
;

boundaryField
{
    movingWall
    {
        type            fixedValue;
        value           uniform (1 0 0);
    }
    fixedWalls
    {
        type            noSlip;
    }
    frontAndBack
    {
        type            empty;
    }
}


// ************************************************************************* //
