/*--------------------------------*- C++ -*----------------------------------*\
| =========                 |                                                 |
| \\      /  F ield         | OpenFOAM: The Open Source CFD Toolbox           |
|  \\    /   O peration     | Version:  5.x                                   |
|   \\  /    A nd           | Web:      www.OpenFOAM.org                      |
|    \\/     M anipulation  |                                                 |
\*---------------------------------------------------------------------------*/
FoamFile
{
    version     2.0;
    format      ascii;
    class       volScalarField;
    location    "15.9";
    object      p;
}
// * * * * * * * * * * * * * * * * * * * * * * * * * * * * * * * * * * * * * //

dimensions      [0 2 -2 0 0 0 0];

internalField   nonuniform List<scalar> 
400
(
5.39361e-10
-0.000492819
-0.000862605
-0.00110596
-0.00122042
-0.00130015
-0.00133644
-0.00137816
-0.00140499
-0.001422
-0.00142215
-0.00140796
-0.00138948
-0.00137132
-0.00135393
-0.0012626
-0.00105311
-0.000707529
-0.000431934
0.000931151
-0.000550687
-0.000883408
-0.0011085
-0.00123659
-0.00127517
-0.00132588
-0.00135993
-0.00138029
-0.00142399
-0.00142608
-0.00144051
-0.00142352
-0.00140883
-0.00140204
-0.00139095
-0.00137417
-0.00130254
-0.00112047
-0.0010698
-9.18833e-05
-0.000883033
-0.00114009
-0.00122445
-0.00129433
-0.00130944
-0.00133701
-0.00136378
-0.00137944
-0.00140715
-0.0014096
-0.00141995
-0.0014091
-0.0014071
-0.00138282
-0.00139582
-0.00132778
-0.00132808
-0.00121291
-0.00112617
-0.000732616
-0.00109833
-0.00124125
-0.00127339
-0.00130312
-0.00131707
-0.00133881
-0.00136363
-0.00138049
-0.00140252
-0.00141036
-0.00141724
-0.00141024
-0.00140957
-0.00139796
-0.00140381
-0.00138888
-0.00136618
-0.00129298
-0.00134964
-0.00114607
-0.00120802
-0.00128427
-0.00128829
-0.00131313
-0.00132504
-0.0013468
-0.00136651
-0.00138228
-0.00140348
-0.0014058
-0.00141717
-0.0014055
-0.0014103
-0.00140109
-0.0014069
-0.00137795
-0.0013936
-0.00136181
-0.00133502
-0.00132289
-0.00126004
-0.00129443
-0.00131036
-0.00132049
-0.00133633
-0.00135443
-0.00137433
-0.00139011
-0.00140849
-0.00141309
-0.00141795
-0.00140989
-0.00141084
-0.00140628
-0.00142314
-0.0014073
-0.00143654
-0.00139655
-0.0014461
-0.00140569
-0.00129458
-0.00131068
-0.00131229
-0.00133305
-0.00133838
-0.00136155
-0.00137905
-0.0013977
-0.00142301
-0.00142666
-0.00142951
-0.00139941
-0.00140943
-0.00141964
-0.0014257
-0.00141966
-0.0014535
-0.00142538
-0.00142312
-0.00142977
-0.00129438
-0.00131137
-0.00131226
-0.00132809
-0.00134576
-0.00136606
-0.00139035
-0.00141379
-0.00143919
-0.00145083
-0.00145115
-0.00143691
-0.00140969
-0.00141158
-0.00143359
-0.00142584
-0.00145502
-0.00145464
-0.00148816
-0.00144979
-0.00130729
-0.00132719
-0.00132572
-0.00134628
-0.0013516
-0.00136866
-0.0013988
-0.00143133
-0.00148145
-0.00149105
-0.00147315
-0.00144835
-0.00142519
-0.00144415
-0.00148473
-0.00145824
-0.00150022
-0.0014561
-0.00149528
-0.00140504
-0.0013161
-0.00132306
-0.00131574
-0.00133097
-0.00134206
-0.00135712
-0.00139143
-0.00144
-0.00150623
-0.00153244
-0.00153166
-0.00152751
-0.00146093
-0.00140814
-0.00146907
-0.00141321
-0.0014603
-0.00140217
-0.00146302
-0.00142105
-0.00131896
-0.00134376
-0.00134043
-0.00135302
-0.00137084
-0.00138002
-0.00141896
-0.00148641
-0.00155258
-0.00155849
-0.00156706
-0.00157013
-0.0015307
-0.0014675
-0.00152348
-0.00147913
-0.00154697
-0.00146236
-0.00151668
-0.00146475
-0.0013377
-0.00133278
-0.00133418
-0.00134123
-0.00136705
-0.00136557
-0.00143913
-0.00154225
-0.00166258
-0.00163706
-0.00158946
-0.00158066
-0.0015577
-0.0014505
-0.00150666
-0.00145757
-0.00152336
-0.00143799
-0.00155001
-0.00145958
-0.00131811
-0.001321
-0.00133059
-0.00133969
-0.00137204
-0.00137191
-0.00151015
-0.00162528
-0.0018176
-0.00175908
-0.0016592
-0.00174162
-0.00162254
-0.00144453
-0.00155636
-0.00142967
-0.00152506
-0.00145461
-0.00150546
-0.00138694
-0.00130868
-0.0013354
-0.00132508
-0.0013121
-0.00136122
-0.00134972
-0.00148327
-0.00162425
-0.00181549
-0.00180513
-0.00168582
-0.00180753
-0.00149397
-0.00141644
-0.00146366
-0.00138507
-0.00148998
-0.00130554
-0.00140389
-0.00129894
-0.00126464
-0.00128556
-0.00129495
-0.00128313
-0.00131862
-0.00127877
-0.00142822
-0.00152193
-0.00172967
-0.00175664
-0.0016727
-0.00170395
-0.00145355
-0.00142063
-0.00151605
-0.00138376
-0.00145648
-0.00133801
-0.00129816
-0.00128867
-0.00119551
-0.00124606
-0.00128195
-0.00125517
-0.00131904
-0.00125229
-0.00136224
-0.00143854
-0.00151252
-0.00161007
-0.00160482
-0.00161229
-0.00148482
-0.00153215
-0.00149722
-0.00127426
-0.00126207
-0.00127326
-0.00120932
-0.00129063
-0.00109281
-0.00118826
-0.00126304
-0.00125351
-0.00127886
-0.0012659
-0.00132029
-0.00136556
-0.00142298
-0.00150339
-0.00156637
-0.0013861
-0.00130024
-0.00178321
-0.0015173
-0.00143181
-0.00142471
-0.00136588
-0.00138858
-0.0011437
-0.000913807
-0.00108694
-0.00118318
-0.00123242
-0.00125882
-0.00127002
-0.00131197
-0.00134079
-0.00139002
-0.0015113
-0.00172007
-0.00175398
-0.00156
-0.00142613
-0.00131161
-0.0013935
-0.00131756
-0.0011201
-0.000900689
-0.000681033
-0.000653161
-0.000881609
-0.00112198
-0.0011621
-0.00119299
-0.00119222
-0.00125562
-0.00132534
-0.00140831
-0.00167271
-0.00204168
-0.001808
-0.00153887
-0.00121477
-0.00122015
-0.00142285
-0.00117115
-0.0014922
-0.00113787
-0.000193783
-0.000360466
-0.000606759
-0.000959442
-0.00117197
-0.00122226
-0.00125716
-0.0012764
-0.00138282
-0.00153887
-0.00161707
-0.00155978
-0.00139982
-0.001249
-0.00123046
-0.00122978
-0.00128241
-0.00119392
-0.000848514
-0.00024099
0.00169901
)
;

boundaryField
{
    movingWall
    {
        type            zeroGradient;
    }
    fixedWalls
    {
        type            zeroGradient;
    }
    frontAndBack
    {
        type            empty;
    }
}


// ************************************************************************* //
