/*--------------------------------*- C++ -*----------------------------------*\
| =========                 |                                                 |
| \\      /  F ield         | OpenFOAM: The Open Source CFD Toolbox           |
|  \\    /   O peration     | Version:  5.x                                   |
|   \\  /    A nd           | Web:      www.OpenFOAM.org                      |
|    \\/     M anipulation  |                                                 |
\*---------------------------------------------------------------------------*/
FoamFile
{
    version     2.0;
    format      ascii;
    class       volScalarField;
    location    "3";
    object      p;
}
// * * * * * * * * * * * * * * * * * * * * * * * * * * * * * * * * * * * * * //

dimensions      [0 2 -2 0 0 0 0];

internalField   nonuniform List<scalar> 
400
(
6.18871e-09
6.20796e-07
1.90962e-06
3.89844e-06
6.64648e-06
1.0229e-05
1.47373e-05
2.02761e-05
2.69575e-05
3.48932e-05
4.41809e-05
5.48827e-05
6.69926e-05
8.03955e-05
9.48423e-05
0.000109774
0.000124329
0.00013731
0.000147293
0.000152741
-6.80232e-07
-8.86967e-08
1.16078e-06
3.09245e-06
5.76645e-06
9.25986e-06
1.36674e-05
1.90993e-05
2.56773e-05
3.35276e-05
4.27691e-05
5.34934e-05
6.57315e-05
7.94087e-05
9.43558e-05
0.000110048
0.00012564
0.000139838
0.000151009
0.000157319
-2.093e-06
-1.54175e-06
-3.69719e-07
1.44727e-06
3.9714e-06
7.28289e-06
1.14827e-05
1.66919e-05
2.30503e-05
3.07119e-05
3.98373e-05
5.05782e-05
6.30451e-05
7.72426e-05
9.31793e-05
0.00011039
0.000128107
0.00014494
0.000158789
0.000167229
-4.18475e-06
-3.69343e-06
-2.63885e-06
-9.97156e-07
1.2965e-06
4.32623e-06
8.2e-06
1.30515e-05
1.90425e-05
2.63639e-05
3.52351e-05
4.58969e-05
5.85993e-05
7.35823e-05
9.07177e-05
0.000110123
0.000131151
0.000152383
0.000171012
0.000183836
-6.89737e-06
-6.48678e-06
-5.59128e-06
-4.18818e-06
-2.2105e-06
4.28188e-07
3.84134e-06
8.1735e-06
1.36072e-05
2.03712e-05
2.87487e-05
3.90847e-05
5.17837e-05
6.72797e-05
8.5945e-05
0.000108071
0.000133611
0.000161442
0.000188048
0.000209737
-1.01504e-05
-9.84241e-06
-9.14935e-06
-8.05075e-06
-6.4789e-06
-4.34845e-06
-1.54524e-06
2.07973e-06
6.72155e-06
1.26368e-05
2.01639e-05
2.97484e-05
4.19712e-05
5.7564e-05
7.74399e-05
0.000102277
0.00013324
0.000170135
0.000209335
0.000249106
-1.38407e-05
-1.36585e-05
-1.32124e-05
-1.24854e-05
-1.14107e-05
-9.90915e-06
-7.87411e-06
-5.16364e-06
-1.58633e-06
3.12002e-06
9.32001e-06
1.75258e-05
2.84615e-05
4.31462e-05
6.29619e-05
8.96103e-05
0.000125855
0.000173631
0.000231196
0.000307584
-1.78414e-05
-1.78103e-05
-1.76563e-05
-1.73672e-05
-1.6878e-05
-1.61219e-05
-1.50102e-05
-1.34249e-05
-1.12019e-05
-8.10853e-06
-3.8054e-06
2.21163e-06
1.07064e-05
2.28598e-05
4.05246e-05
6.67088e-05
0.000104933
0.000161778
0.000239781
0.000383202
-2.19987e-05
-2.21513e-05
-2.23349e-05
-2.25485e-05
-2.27232e-05
-2.28148e-05
-2.27635e-05
-2.24928e-05
-2.18951e-05
-2.08126e-05
-1.90049e-05
-1.60945e-05
-1.14755e-05
-4.14575e-06
7.56579e-06
2.65347e-05
5.94373e-05
0.00011423
0.000184845
0.000429507
-2.61354e-05
-2.65102e-05
-2.70793e-05
-2.78559e-05
-2.87584e-05
-2.97746e-05
-3.08854e-05
-3.20718e-05
-3.33075e-05
-3.45519e-05
-3.57341e-05
-3.67292e-05
-3.73245e-05
-3.7137e-05
-3.55537e-05
-3.24403e-05
-2.51621e-05
5.64504e-06
-6.9429e-05
0.000248133
-3.0012e-05
-3.07462e-05
-3.17274e-05
-3.31792e-05
-3.48179e-05
-3.67938e-05
-3.91008e-05
-4.18066e-05
-4.49797e-05
-4.87339e-05
-5.323e-05
-5.87096e-05
-6.55758e-05
-7.45197e-05
-8.66342e-05
-0.000106327
-0.000153469
-0.000132544
-0.000485043
-0.0001251
-3.34339e-05
-3.4511e-05
-3.59811e-05
-3.80125e-05
-4.04882e-05
-4.3453e-05
-4.69876e-05
-5.11968e-05
-5.62698e-05
-6.2462e-05
-7.01461e-05
-7.98783e-05
-9.25979e-05
-0.000110016
-0.000134769
-0.00016244
-0.000260624
-0.000218072
-0.00053983
-0.000342121
-3.58698e-05
-3.85184e-05
-4.01246e-05
-4.4183e-05
-4.68296e-05
-5.08379e-05
-5.50708e-05
-6.04028e-05
-6.7019e-05
-7.53946e-05
-8.60409e-05
-9.97702e-05
-0.000117752
-0.000141999
-0.000179956
-0.000204021
-0.000323721
-0.000307432
-0.000467241
-0.000401155
-3.73642e-05
-4.03822e-05
-4.28967e-05
-4.56833e-05
-4.94918e-05
-5.38624e-05
-5.94881e-05
-6.63916e-05
-7.49233e-05
-8.53426e-05
-9.83239e-05
-0.000114671
-0.000135983
-0.000161236
-0.000211568
-0.000233208
-0.000366275
-0.00039228
-0.000568668
-0.000544173
-3.43281e-05
-4.2572e-05
-4.70367e-05
-5.4927e-05
-5.7814e-05
-6.49554e-05
-6.90991e-05
-7.6646e-05
-8.50162e-05
-9.62123e-05
-0.000110114
-0.000128084
-0.000152642
-0.000173314
-0.000238479
-0.000254389
-0.000393678
-0.000452403
-0.000617211
-0.000597279
-3.60958e-05
-5.17426e-05
-4.94675e-05
-5.29125e-05
-5.57588e-05
-5.94725e-05
-6.56487e-05
-7.35981e-05
-8.42421e-05
-9.68168e-05
-0.000112791
-0.000130831
-0.000156884
-0.00017635
-0.000234644
-0.000258435
-0.000366095
-0.000431515
-0.000531966
-0.000441847
-1.04123e-05
-3.22629e-05
-5.41139e-05
-6.72163e-05
-6.86579e-05
-7.8218e-05
-7.74731e-05
-8.78461e-05
-9.49508e-05
-0.000107395
-0.000121167
-0.000138074
-0.00016095
-0.000181299
-0.000221702
-0.000260142
-0.000317116
-0.000388698
-0.000460522
-0.000243112
-2.3677e-05
-0.000101106
-7.62041e-05
-6.44609e-05
-5.78583e-05
-5.86041e-05
-6.17037e-05
-7.02279e-05
-8.19976e-05
-9.56276e-05
-0.000111464
-0.00013211
-0.000151236
-0.00017652
-0.00020347
-0.000221774
-0.000234175
-0.000278447
-0.00028242
6.29549e-05
1.80594e-05
-7.5685e-05
-7.97324e-05
-7.50153e-05
-5.96708e-05
-8.29617e-05
-7.15104e-05
-8.69808e-05
-9.81632e-05
-0.000109216
-0.000120147
-0.000143812
-0.000158756
-0.000179638
-0.000202505
-0.00023841
-0.000240894
-0.000180137
-0.000210899
0.000540048
-0.000126208
-4.85767e-05
-3.19375e-05
-3.80514e-05
-3.57843e-05
-4.77473e-05
-5.5012e-05
-5.47734e-05
-7.87377e-05
-9.38324e-05
-9.30018e-05
-0.000135687
-0.000138228
-0.000149663
-0.000187492
-0.000171458
-0.000139485
0.000143665
0.000635085
0.00200589
)
;

boundaryField
{
    movingWall
    {
        type            zeroGradient;
    }
    fixedWalls
    {
        type            zeroGradient;
    }
    frontAndBack
    {
        type            empty;
    }
}


// ************************************************************************* //
