/*--------------------------------*- C++ -*----------------------------------*\
| =========                 |                                                 |
| \\      /  F ield         | OpenFOAM: The Open Source CFD Toolbox           |
|  \\    /   O peration     | Version:  5.x                                   |
|   \\  /    A nd           | Web:      www.OpenFOAM.org                      |
|    \\/     M anipulation  |                                                 |
\*---------------------------------------------------------------------------*/
FoamFile
{
    version     2.0;
    format      ascii;
    class       surfaceScalarField;
    location    "3";
    object      phi;
}
// * * * * * * * * * * * * * * * * * * * * * * * * * * * * * * * * * * * * * //

dimensions      [0 3 -1 0 0 0 0];

internalField   nonuniform List<scalar> 
760
(
-9.79757e-09
9.79696e-09
-2.00183e-08
1.02207e-08
-3.02496e-08
1.02313e-08
-4.04779e-08
1.02283e-08
-5.06677e-08
1.01898e-08
-6.07531e-08
1.00854e-08
-7.06271e-08
9.87407e-09
-8.01286e-08
9.50144e-09
-8.90261e-08
8.89753e-09
-9.70014e-08
7.97531e-09
-1.03632e-07
6.63013e-09
-1.08375e-07
4.74367e-09
-1.10573e-07
2.19755e-09
-1.09414e-07
-1.15923e-09
-1.03979e-07
-5.43411e-09
-9.34718e-08
-1.05077e-08
-7.73403e-08
-1.61315e-08
-5.55515e-08
-2.17888e-08
-2.8906e-08
-2.66455e-08
-2.8906e-08
-1.02466e-08
2.00435e-08
-2.09327e-08
2.09068e-08
-3.16282e-08
2.09269e-08
-4.23195e-08
2.09196e-08
-5.29717e-08
2.08421e-08
-6.35221e-08
2.06357e-08
-7.3869e-08
2.02211e-08
-8.38592e-08
1.94916e-08
-9.32707e-08
1.8309e-08
-1.01794e-07
1.6499e-08
-1.09013e-07
1.38488e-08
-1.14382e-07
1.01125e-08
-1.17221e-07
5.03645e-09
-1.16695e-07
-1.68538e-09
-1.1172e-07
-1.04089e-08
-1.01307e-07
-2.09207e-08
-8.46324e-08
-3.28059e-08
-6.14279e-08
-4.49932e-08
-3.23421e-08
-5.57313e-08
-6.12481e-08
-1.02402e-08
3.02837e-08
-2.09431e-08
3.16097e-08
-3.16806e-08
3.16644e-08
-4.24544e-08
3.16933e-08
-5.32472e-08
3.16349e-08
-6.40179e-08
3.14064e-08
-7.46911e-08
3.08942e-08
-8.51452e-08
2.99457e-08
-9.51953e-08
2.83592e-08
-1.0457e-07
2.5874e-08
-1.12885e-07
2.21631e-08
-1.19606e-07
1.68342e-08
-1.24021e-07
9.45073e-09
-1.25264e-07
-4.41575e-10
-1.22005e-07
-1.36688e-08
-1.12873e-07
-3.00524e-08
-9.64406e-08
-4.92382e-08
-7.16848e-08
-6.97489e-08
-3.8797e-08
-8.86191e-08
-1.00045e-07
-1.01969e-08
4.04806e-08
-2.08907e-08
4.23034e-08
-3.16578e-08
4.24315e-08
-4.25221e-08
4.25576e-08
-5.34908e-08
4.26036e-08
-6.45526e-08
4.24683e-08
-7.56715e-08
4.20131e-08
-8.67751e-08
4.10492e-08
-9.77382e-08
3.93224e-08
-1.08358e-07
3.64935e-08
-1.18315e-07
3.21204e-08
-1.27126e-07
2.56451e-08
-1.34075e-07
1.64003e-08
-1.38236e-07
3.71911e-09
-1.38058e-07
-1.38469e-08
-1.31539e-07
-3.65711e-08
-1.16263e-07
-6.45144e-08
-8.97149e-08
-9.6297e-08
-5.08978e-08
-1.27436e-07
-1.50943e-07
-1.0111e-08
5.05916e-08
-2.07635e-08
5.2956e-08
-3.15386e-08
5.32066e-08
-4.24864e-08
5.35054e-08
-5.36433e-08
5.37604e-08
-6.50355e-08
5.38605e-08
-7.66767e-08
5.36543e-08
-8.85609e-08
5.29335e-08
-1.00648e-07
5.14098e-08
-1.1284e-07
4.86855e-08
-1.24938e-07
4.42185e-08
-1.36579e-07
3.72852e-08
-1.47132e-07
2.69539e-08
-1.55541e-07
1.21278e-08
-1.6038e-07
-9.00734e-09
-1.5875e-07
-3.82011e-08
-1.46859e-07
-7.64058e-08
-1.19668e-07
-1.23488e-07
-7.3014e-08
-1.7409e-07
-2.23957e-07
-9.95727e-09
6.05489e-08
-2.05129e-08
6.35116e-08
-3.12494e-08
6.39432e-08
-4.22448e-08
6.45008e-08
-5.3565e-08
6.50806e-08
-6.52769e-08
6.55724e-08
-7.74517e-08
6.5829e-08
-9.01641e-08
6.56459e-08
-1.03485e-07
6.47308e-08
-1.17463e-07
6.2663e-08
-1.32084e-07
5.88398e-08
-1.47205e-07
5.24061e-08
-1.62417e-07
4.21662e-08
-1.76779e-07
2.64901e-08
-1.89246e-07
3.45919e-09
-1.96115e-07
-3.13323e-08
-1.92142e-07
-8.03786e-08
-1.68778e-07
-1.46852e-07
-1.14485e-07
-2.28383e-07
-3.38442e-07
-9.70394e-09
7.02528e-08
-2.00796e-08
7.38872e-08
-3.07044e-08
7.45681e-08
-4.16809e-08
7.54773e-08
-5.30986e-08
7.64982e-08
-6.50616e-08
7.75355e-08
-7.77002e-08
7.84675e-08
-9.11788e-08
7.91245e-08
-1.057e-07
7.92517e-08
-1.21496e-07
7.84595e-08
-1.38811e-07
7.6155e-08
-1.57849e-07
7.14437e-08
-1.78669e-07
6.29867e-08
-2.00981e-07
4.88014e-08
-2.23602e-07
2.608e-08
-2.44609e-07
-1.03245e-08
-2.56843e-07
-6.81448e-08
-2.48435e-07
-1.5526e-07
-1.95943e-07
-2.80875e-07
-5.34385e-07
-9.30984e-09
7.95626e-08
-1.93949e-08
8.39723e-08
-2.98109e-08
8.49841e-08
-4.0677e-08
8.63434e-08
-5.20883e-08
8.79096e-08
-6.4174e-08
8.96212e-08
-7.71156e-08
9.14091e-08
-9.11671e-08
9.3176e-08
-1.06672e-07
9.47564e-08
-1.24078e-07
9.58655e-08
-1.43949e-07
9.60259e-08
-1.66962e-07
9.4457e-08
-1.9387e-07
8.98948e-08
-2.25364e-07
8.02957e-08
-2.61663e-07
6.23791e-08
-3.02788e-07
3.08003e-08
-3.44216e-07
-2.67168e-08
-3.72716e-07
-1.26761e-07
-3.58813e-07
-2.94777e-07
-8.93199e-07
-8.71113e-09
8.82738e-08
-1.83767e-08
9.36379e-08
-2.84702e-08
9.50776e-08
-3.91262e-08
9.69993e-08
-5.04013e-08
9.91847e-08
-6.2429e-08
1.01649e-07
-7.54221e-08
1.04402e-07
-8.97071e-08
1.07461e-07
-1.05754e-07
1.10803e-07
-1.24214e-07
1.14325e-07
-1.45968e-07
1.1778e-07
-1.72206e-07
1.20694e-07
-2.04536e-07
1.22225e-07
-2.45121e-07
1.20881e-07
-2.96877e-07
1.14135e-07
-3.64094e-07
9.80177e-08
-4.52324e-07
6.15127e-08
-5.48666e-07
-3.04182e-08
-6.27084e-07
-2.16359e-07
-1.52028e-06
-7.83675e-09
9.61105e-08
-1.69276e-08
1.02729e-07
-2.65828e-08
1.04733e-07
-3.69419e-08
1.07358e-07
-4.79481e-08
1.10191e-07
-5.97054e-08
1.13406e-07
-7.24276e-08
1.17124e-07
-8.64842e-08
1.21518e-07
-1.02442e-07
1.26761e-07
-1.21128e-07
1.33011e-07
-1.43716e-07
1.40368e-07
-1.71869e-07
1.48848e-07
-2.07997e-07
1.58353e-07
-2.55696e-07
1.6858e-07
-3.20542e-07
1.78981e-07
-4.13175e-07
1.9065e-07
-5.54684e-07
2.03022e-07
-6.83478e-07
9.83763e-08
-7.6071e-07
-1.39128e-07
-2.28099e-06
-6.32601e-09
1.02437e-07
-1.49357e-08
1.11338e-07
-2.39504e-08
1.13747e-07
-3.41506e-08
1.17559e-07
-4.47557e-08
1.20796e-07
-5.6027e-08
1.24677e-07
-6.80888e-08
1.29186e-07
-8.13264e-08
1.34755e-07
-9.63196e-08
1.41754e-07
-1.13934e-07
1.50626e-07
-1.35389e-07
1.61823e-07
-1.62455e-07
1.75914e-07
-1.97844e-07
1.93742e-07
-2.45837e-07
2.16572e-07
-3.12374e-07
2.45518e-07
-4.0151e-07
2.79786e-07
-5.41137e-07
3.42649e-07
-6.02658e-07
1.59897e-07
-4.55754e-07
-2.86032e-07
-2.73675e-06
-4.80703e-09
1.07244e-07
-1.23875e-08
1.18919e-07
-2.08342e-08
1.22194e-07
-3.04412e-08
1.27166e-07
-4.0633e-08
1.30988e-07
-5.12931e-08
1.35337e-07
-6.24294e-08
1.40323e-07
-7.43484e-08
1.46674e-07
-8.76636e-08
1.5507e-07
-1.03322e-07
1.66284e-07
-1.2263e-07
1.81131e-07
-1.47301e-07
2.00585e-07
-1.79621e-07
2.26062e-07
-2.22667e-07
2.59618e-07
-2.82205e-07
3.05056e-07
-3.4114e-07
3.38722e-07
-4.09516e-07
4.11025e-07
-4.27397e-07
1.77779e-07
-1.33791e-07
-5.79638e-07
-2.87054e-06
2.13122e-09
1.05112e-07
-6.87717e-09
1.27927e-07
-1.46943e-08
1.30011e-07
-2.75772e-08
1.40049e-07
-3.73964e-08
1.40807e-07
-4.79342e-08
1.45875e-07
-5.70596e-08
1.49448e-07
-6.63898e-08
1.56004e-07
-7.62632e-08
1.64943e-07
-8.74445e-08
1.77466e-07
-1.00566e-07
1.94252e-07
-1.16893e-07
2.16912e-07
-1.38169e-07
2.47338e-07
-1.65072e-07
2.86521e-07
-2.09698e-07
3.49682e-07
-2.59812e-07
3.88836e-07
-3.04561e-07
4.55774e-07
-3.41526e-07
2.14744e-07
-1.73664e-07
-7.475e-07
-3.0442e-06
-2.89404e-09
1.08006e-07
-6.70937e-09
1.31743e-07
-1.49845e-08
1.38286e-07
-2.15993e-08
1.46663e-07
-2.99162e-08
1.49124e-07
-3.80015e-08
1.53961e-07
-4.62274e-08
1.57674e-07
-5.45941e-08
1.64371e-07
-6.31376e-08
1.73487e-07
-7.20688e-08
1.86397e-07
-8.25493e-08
2.04733e-07
-9.49676e-08
2.2933e-07
-1.12286e-07
2.64657e-07
-1.27756e-07
3.01991e-07
-1.55332e-07
3.77258e-07
-1.85583e-07
4.19086e-07
-1.97248e-07
4.67439e-07
-2.23899e-07
2.41395e-07
-1.21845e-07
-8.49554e-07
-3.16605e-06
4.27666e-08
6.52398e-08
2.14126e-08
1.53097e-07
3.60347e-09
1.56095e-07
-1.96202e-08
1.69887e-07
-3.42e-08
1.63704e-07
-4.56108e-08
1.65371e-07
-4.95557e-08
1.61619e-07
-5.31147e-08
1.6793e-07
-5.29284e-08
1.733e-07
-5.26027e-08
1.86071e-07
-4.96521e-08
2.01782e-07
-4.54961e-08
2.25174e-07
-3.98672e-08
2.59028e-07
-3.57426e-08
2.97866e-07
-2.76966e-08
3.69212e-07
-4.58292e-08
4.37219e-07
-3.8227e-08
4.59836e-07
-8.83964e-08
2.91564e-07
5.08373e-08
-9.88788e-07
-3.11521e-06
5.88019e-09
5.93596e-08
7.98353e-09
1.50993e-07
2.52272e-09
1.61556e-07
-5.90297e-09
1.78313e-07
-1.11231e-08
1.68924e-07
-1.82009e-08
1.72449e-07
-2.22589e-08
1.65677e-07
-2.67115e-08
1.72383e-07
-3.03977e-08
1.76987e-07
-3.08236e-08
1.86497e-07
-3.1753e-08
2.02712e-07
-2.74829e-08
2.20904e-07
-2.49887e-08
2.56534e-07
-1.90162e-08
2.91894e-07
4.36128e-09
3.45835e-07
1.55008e-09
4.4003e-07
1.0152e-07
3.59867e-07
1.02054e-07
2.9103e-07
1.10574e-07
-9.97307e-07
-3.00464e-06
1.21132e-07
-6.17723e-08
1.97968e-08
2.52328e-07
-7.15674e-08
2.52921e-07
-1.0223e-07
2.08975e-07
-1.04258e-07
1.70952e-07
-1.01447e-07
1.69638e-07
-8.32073e-08
1.47437e-07
-7.3797e-08
1.62972e-07
-5.58174e-08
1.59007e-07
-4.11567e-08
1.71836e-07
-1.91497e-08
1.80705e-07
2.0206e-09
1.99734e-07
4.02751e-08
2.18279e-07
8.41414e-08
2.48027e-07
1.38448e-07
2.91529e-07
2.05324e-07
3.73154e-07
2.95323e-07
2.69867e-07
2.19659e-07
3.66694e-07
1.572e-07
-9.34849e-07
-2.84744e-06
1.92048e-07
-2.53821e-07
3.20425e-07
1.23952e-07
3.53183e-07
2.20163e-07
3.07566e-07
2.54592e-07
2.89573e-07
1.88944e-07
2.30116e-07
2.29096e-07
2.03541e-07
1.74012e-07
1.66325e-07
2.00188e-07
1.39503e-07
1.85829e-07
1.24076e-07
1.87263e-07
1.19582e-07
1.85199e-07
1.20416e-07
1.98901e-07
1.48289e-07
1.90406e-07
1.79449e-07
2.16868e-07
2.16104e-07
2.54873e-07
2.51686e-07
3.37573e-07
3.66916e-07
1.54637e-07
4.00658e-07
3.32952e-07
3.97879e-07
-9.3207e-07
-2.44956e-06
-6.55041e-07
4.01221e-07
-7.85122e-07
2.54032e-07
-8.00491e-07
2.35532e-07
-7.55465e-07
2.09567e-07
-7.38806e-07
1.72284e-07
-7.03512e-07
1.93803e-07
-6.70452e-07
1.40952e-07
-6.26636e-07
1.56372e-07
-5.9131e-07
1.50503e-07
-5.26817e-07
1.22771e-07
-4.79166e-07
1.37547e-07
-4.11552e-07
1.31286e-07
-3.29156e-07
1.0801e-07
-2.43717e-07
1.31429e-07
-1.07001e-07
1.18157e-07
1.13123e-07
1.17449e-07
3.28973e-07
-6.12129e-08
6.95241e-07
-3.33157e-08
7.15898e-07
-9.52727e-07
-1.73366e-06
4.01221e-07
6.55253e-07
8.90785e-07
1.10035e-06
1.27264e-06
1.46644e-06
1.60739e-06
1.76376e-06
1.91426e-06
2.03704e-06
2.17458e-06
2.30587e-06
2.41388e-06
2.54531e-06
2.66346e-06
2.78091e-06
2.7197e-06
2.68638e-06
1.73366e-06
)
;

boundaryField
{
    movingWall
    {
        type            calculated;
        value           uniform 0;
    }
    fixedWalls
    {
        type            calculated;
        value           uniform 0;
    }
    frontAndBack
    {
        type            empty;
        value           nonuniform 0();
    }
}


// ************************************************************************* //
