/*--------------------------------*- C++ -*----------------------------------*\
| =========                 |                                                 |
| \\      /  F ield         | OpenFOAM: The Open Source CFD Toolbox           |
|  \\    /   O peration     | Version:  5.x                                   |
|   \\  /    A nd           | Web:      www.OpenFOAM.org                      |
|    \\/     M anipulation  |                                                 |
\*---------------------------------------------------------------------------*/
FoamFile
{
    version     2.0;
    format      ascii;
    class       volVectorField;
    location    "3";
    object      U;
}
// * * * * * * * * * * * * * * * * * * * * * * * * * * * * * * * * * * * * * //

dimensions      [0 1 -1 0 0 0 0];

internalField   nonuniform List<vector> 
400
(
(-9.71408e-05 9.68909e-05 0)
(-0.000297726 0.000101091 0)
(-0.0005036 0.000101217 0)
(-0.000708502 0.000101216 0)
(-0.000913073 0.000100866 0)
(-0.00111622 9.98641e-05 0)
(-0.00131624 9.77992e-05 0)
(-0.00151045 9.41266e-05 0)
(-0.00169498 8.81476e-05 0)
(-0.00186436 7.8994e-05 0)
(-0.00201126 6.56242e-05 0)
(-0.00212607 4.68459e-05 0)
(-0.00219684 2.1414e-05 0)
(-0.00220875 -1.18009e-05 0)
(-0.00214432 -5.37672e-05 0)
(-0.00198617 -0.000103799 0)
(-0.00172024 -0.000159275 0)
(-0.0013408 -0.000214675 0)
(-0.000851542 -0.000261828 0)
(-0.000290152 -0.000283236 0)
(-0.000101584 0.000297127 0)
(-0.000311351 0.000309935 0)
(-0.000526615 0.00031025 0)
(-0.000740811 0.000310161 0)
(-0.000954665 0.00030902 0)
(-0.00116712 0.00030592 0)
(-0.00137654 0.000299627 0)
(-0.00158039 0.000288508 0)
(-0.00177495 0.000270458 0)
(-0.00195495 0.000242838 0)
(-0.00211322 0.000202451 0)
(-0.00224019 0.000145618 0)
(-0.00232371 6.84767e-05 0)
(-0.00234857 -3.23944e-05 0)
(-0.00229542 -0.000160114 0)
(-0.00214331 -0.000313597 0)
(-0.00187348 -0.000486177 0)
(-0.00147512 -0.000662047 0)
(-0.000947411 -0.000814344 0)
(-0.000325703 -0.000888181 0)
(-0.000101448 0.000502706 0)
(-0.000311319 0.000524544 0)
(-0.00052723 0.000525284 0)
(-0.000742649 0.000525485 0)
(-0.000958726 0.000524092 0)
(-0.00117478 0.000519654 0)
(-0.00138965 0.00051019 0)
(-0.00160139 0.000493064 0)
(-0.00180695 0.000464827 0)
(-0.00200182 0.000421071 0)
(-0.00217952 0.000356341 0)
(-0.00233098 0.000264178 0)
(-0.00244385 0.000137474 0)
(-0.00250249 -3.06045e-05 0)
(-0.00248489 -0.000246314 0)
(-0.00236394 -0.000511175 0)
(-0.00211106 -0.000817089 0)
(-0.00170139 -0.00113987 0)
(-0.00112199 -0.0014294 0)
(-0.000394431 -0.00158917 0)
(-0.000100906 0.000706787 0)
(-0.000310247 0.0007382 0)
(-0.000526444 0.000740023 0)
(-0.000743023 0.000741556 0)
(-0.000961741 0.000741377 0)
(-0.00118244 0.000737598 0)
(-0.00140466 0.000727642 0)
(-0.00162734 0.00070804 0)
(-0.00184851 0.000674163 0)
(-0.00206492 0.000619928 0)
(-0.00227143 0.000537544 0)
(-0.00246015 0.000417368 0)
(-0.00261931 0.000248063 0)
(-0.00273288 1.72965e-05 0)
(-0.00277623 -0.000285656 0)
(-0.0027141 -0.000670986 0)
(-0.0025022 -0.00113424 0)
(-0.00208948 -0.00164859 0)
(-0.00144121 -0.00213722 0)
(-0.000528184 -0.00246277 0)
(-9.98954e-05 0.000909626 0)
(-0.000307957 0.0009514 0)
(-0.000523927 0.000955185 0)
(-0.000741354 0.000959417 0)
(-0.000962755 0.000962374 0)
(-0.00118859 0.000961874 0)
(-0.00141929 0.000954942 0)
(-0.00165495 0.00093753 0)
(-0.00189514 0.000904108 0)
(-0.00213851 0.000847168 0)
(-0.00238214 0.000756681 0)
(-0.0026205 0.00061957 0)
(-0.00284394 0.000419385 0)
(-0.0030362 0.000136623 0)
(-0.00317317 -0.000248299 0)
(-0.00321252 -0.000760925 0)
(-0.00308884 -0.00141083 0)
(-0.00270857 -0.00218308 0)
(-0.00200392 -0.00297971 0)
(-0.000786897 -0.00365496 0)
(-9.81573e-05 0.00111008 0)
(-0.000303704 0.00116323 0)
(-0.000518449 0.00117006 0)
(-0.000735871 0.00117861 0)
(-0.000959333 0.00118691 0)
(-0.00118992 0.00119268 0)
(-0.00142906 0.00119285 0)
(-0.00167823 0.00118319 0)
(-0.00193893 0.00115776 0)
(-0.00221241 0.00110819 0)
(-0.00249909 0.00102274 0)
(-0.00279752 0.000885269 0)
(-0.00310234 0.00067387 0)
(-0.00340064 0.000359865 0)
(-0.00367385 -9.30283e-05 0)
(-0.00387663 -0.000724136 0)
(-0.00392428 -0.00158435 0)
(-0.00366636 -0.00269512 0)
(-0.00300585 -0.00397114 0)
(-0.00131307 -0.00542222 0)
(-9.53536e-05 0.0013065 0)
(-0.000296559 0.00137231 0)
(-0.000508556 0.00138344 0)
(-0.000724554 0.00139811 0)
(-0.000948749 0.00141408 0)
(-0.00118272 0.00142923 0)
(-0.00142886 0.00144079 0)
(-0.00169013 0.0014449 0)
(-0.00197024 0.00143592 0)
(-0.00227362 0.00140549 0)
(-0.00260516 0.00134127 0)
(-0.00296949 0.00122514 0)
(-0.00336949 0.00103068 0)
(-0.0038033 0.000719804 0)
(-0.00425744 0.00023841 0)
(-0.0047041 -0.00047995 0)
(-0.00505962 -0.00154243 0)
(-0.00511272 -0.00305132 0)
(-0.0048213 -0.00503903 0)
(-0.00248106 -0.00823604 0)
(-9.103e-05 0.00149644 0)
(-0.000285379 0.00157672 0)
(-0.000492626 0.00159365 0)
(-0.000705301 0.00161637 0)
(-0.000928296 0.00164222 0)
(-0.00116331 0.00166959 0)
(-0.0014135 0.00169647 0)
(-0.00168323 0.00172009 0)
(-0.00197848 0.00173607 0)
(-0.00230721 0.00173739 0)
(-0.00267963 0.00171291 0)
(-0.00310837 0.00164523 0)
(-0.00360809 0.00150721 0)
(-0.0041936 0.00125639 0)
(-0.00487478 0.000826545 0)
(-0.00565942 0.000111486 0)
(-0.00649893 -0.00106189 0)
(-0.00720638 -0.00294056 0)
(-0.0080483 -0.00579154 0)
(-0.00521419 -0.0129154 0)
(-8.44034e-05 0.00167684 0)
(-0.000268571 0.00177392 0)
(-0.000468838 0.00179851 0)
(-0.000676066 0.0018313 0)
(-0.000895644 0.00186893 0)
(-0.0011286 0.00191063 0)
(-0.0013785 0.00195579 0)
(-0.0016507 0.00200346 0)
(-0.00195314 0.00205159 0)
(-0.00229699 0.00209598 0)
(-0.00269753 0.0021288 0)
(-0.0031754 0.00213641 0)
(-0.00375857 0.00209575 0)
(-0.00448452 0.00196798 0)
(-0.0054039 0.00168798 0)
(-0.00659662 0.00114294 0)
(-0.00812571 9.02223e-05 0)
(-0.00989989 -0.00187932 0)
(-0.0131085 -0.00516117 0)
(-0.00988458 -0.0213467 0)
(-7.46028e-05 0.00184105 0)
(-0.000244216 0.00196262 0)
(-0.000435131 0.00199626 0)
(-0.000635001 0.00204298 0)
(-0.000849093 0.00209256 0)
(-0.00107661 0.00214922 0)
(-0.00132087 0.00221346 0)
(-0.00158766 0.00228736 0)
(-0.00188624 0.00237223 0)
(-0.00223036 0.00246839 0)
(-0.0026397 0.00257413 0)
(-0.00314225 0.00268469 0)
(-0.00377806 0.00279018 0)
(-0.00460433 0.00287056 0)
(-0.00570626 0.00288892 0)
(-0.00727253 0.0027992 0)
(-0.00952344 0.0024433 0)
(-0.0118229 0.000697904 0)
(-0.0179083 -0.00307059 0)
(-0.0093416 -0.0381189 0)
(-5.52666e-05 0.0019906 0)
(-0.000205646 0.00213139 0)
(-0.000388335 0.00218033 0)
(-0.000579902 0.00223652 0)
(-0.00078965 0.00230315 0)
(-0.00100793 0.00237529 0)
(-0.00124063 0.00245942 0)
(-0.00149224 0.00255941 0)
(-0.00177247 0.00268142 0)
(-0.00209545 0.00283072 0)
(-0.00248146 0.00301179 0)
(-0.00295913 0.00322813 0)
(-0.00357161 0.0034832 0)
(-0.00438387 0.00378213 0)
(-0.00547162 0.00413212 0)
(-0.00701088 0.00455614 0)
(-0.00973632 0.00528764 0)
(-0.00983119 0.00284907 0)
(-0.0178867 -0.0037011 0)
(0.00289749 -0.0555622 0)
(-3.97761e-05 0.00207823 0)
(-0.000160951 0.00234868 0)
(-0.000329606 0.00237246 0)
(-0.000512563 0.00251188 0)
(-0.00071004 0.00255581 0)
(-0.000920361 0.0026349 0)
(-0.00113681 0.00271418 0)
(-0.00136592 0.00282494 0)
(-0.00161539 0.0029746 0)
(-0.00190076 0.00317567 0)
(-0.00224377 0.00344108 0)
(-0.00267383 0.00379108 0)
(-0.00322973 0.00425114 0)
(-0.0039658 0.0048596 0)
(-0.00493677 0.00566221 0)
(-0.00584305 0.00644295 0)
(-0.00897361 0.00794443 0)
(-0.00533017 0.00378233 0)
(-0.0145882 -0.00751325 0)
(0.0106697 -0.0566627 0)
(9.92941e-05 0.00222382 0)
(-2.56611e-05 0.00233263 0)
(-0.000226287 0.00246635 0)
(-0.000396128 0.00246045 0)
(-0.000669017 0.00258781 0)
(-0.000850781 0.00267748 0)
(-0.0010521 0.0028154 0)
(-0.001233 0.00297398 0)
(-0.00142277 0.00317092 0)
(-0.00162987 0.00341512 0)
(-0.00186676 0.00372838 0)
(-0.00214969 0.00412923 0)
(-0.00250385 0.00465342 0)
(-0.00297007 0.00532395 0)
(-0.00384632 0.00629759 0)
(-0.00387407 0.00699198 0)
(-0.00763375 0.0083771 0)
(-0.00312042 0.00353894 0)
(-0.0122558 -0.0137312 0)
(0.00630994 -0.0564443 0)
(-6.18736e-05 0.00189745 0)
(-6.86574e-05 0.0028774 0)
(-0.00019153 0.00281496 0)
(-0.000392631 0.00332479 0)
(-0.000487483 0.00320117 0)
(-0.000691119 0.00333773 0)
(-0.000837553 0.00331326 0)
(-0.00100851 0.00340039 0)
(-0.00117275 0.00352982 0)
(-0.00134244 0.00376735 0)
(-0.00152914 0.00411474 0)
(-0.0017474 0.00463416 0)
(-0.00203054 0.00535688 0)
(-0.00229169 0.00626189 0)
(-0.00316357 0.0079045 0)
(-0.00238954 0.00881779 0)
(-0.00595473 0.0102575 0)
(-0.000890319 0.00511717 0)
(-0.00936373 -0.0166436 0)
(0.00528008 -0.0644987 0)
(0.000850638 0.00255843 0)
(0.000758866 0.00238077 0)
(0.000153814 0.00262169 0)
(-3.13947e-05 0.0023021 0)
(-0.000689623 0.00254593 0)
(-0.000749702 0.00255103 0)
(-0.00100026 0.00275876 0)
(-0.00102335 0.00294375 0)
(-0.00106287 0.00320739 0)
(-0.00105417 0.0034972 0)
(-0.00101517 0.00389854 0)
(-0.000936396 0.00434447 0)
(-0.00093676 0.0050086 0)
(-0.000460916 0.00564435 0)
(-0.00123674 0.00678076 0)
(0.000463113 0.00758802 0)
(-0.00275839 0.00784855 0)
(0.00165318 0.00394619 0)
(-0.00595955 -0.0189666 0)
(0.00841001 -0.0649445 0)
(6.41075e-05 -0.000153164 0)
(0.00011209 0.00343955 0)
(0.000266403 0.00374974 0)
(-0.000180421 0.00480385 0)
(-4.76278e-05 0.00429069 0)
(-0.000375032 0.0044272 0)
(-0.000371846 0.00400608 0)
(-0.000503009 0.00408869 0)
(-0.000575036 0.00399609 0)
(-0.00060953 0.00421082 0)
(-0.000639216 0.0044065 0)
(-0.000567775 0.00490569 0)
(-0.000616716 0.00559944 0)
(-0.000225877 0.00648646 0)
(-0.000720074 0.008321 0)
(0.000972356 0.0102582 0)
(-0.000973388 0.0108927 0)
(0.00540171 0.00827964 0)
(-0.00196202 -0.0196183 0)
(0.00717916 -0.0603443 0)
(0.00238536 0.00281193 0)
(0.00223525 0.00318179 0)
(-0.00149847 0.00285122 0)
(-0.00142901 0.00197914 0)
(-0.00246585 0.00210269 0)
(-0.00189473 0.00200846 0)
(-0.00195718 0.00224532 0)
(-0.00152828 0.0023965 0)
(-0.0013057 0.00273502 0)
(-0.000998117 0.00290552 0)
(-0.000603061 0.00339865 0)
(-0.000117328 0.00366224 0)
(0.000186243 0.00436765 0)
(0.00154979 0.00500857 0)
(0.00164983 0.00535525 0)
(0.0041246 0.00677234 0)
(0.00419118 0.00322171 0)
(0.00718116 0.00281988 0)
(0.000517884 -0.021191 0)
(0.00702416 -0.0601745 0)
(0.00116422 -0.00561055 0)
(0.00569635 0.00597123 0)
(0.00795352 0.006897 0)
(0.0059924 0.00674714 0)
(0.0064332 0.00509795 0)
(0.00500518 0.00530685 0)
(0.00429162 0.00404606 0)
(0.00376412 0.00459007 0)
(0.00283858 0.00403257 0)
(0.00281374 0.00436876 0)
(0.00211668 0.00419282 0)
(0.00263022 0.00466731 0)
(0.00229982 0.00473826 0)
(0.00349316 0.00516901 0)
(0.00375585 0.00666576 0)
(0.00475827 0.0089726 0)
(0.00574884 0.00839455 0)
(0.00817137 0.0126387 0)
(0.0062689 -0.0143157 0)
(0.0119964 -0.055311 0)
(-0.0185833 -0.00344985 0)
(-0.00913603 -0.000538641 0)
(-0.0211869 0.00151819 0)
(-0.0110916 0.00286845 0)
(-0.018295 0.00206196 0)
(-0.0122914 0.00316532 0)
(-0.0148748 0.0024948 0)
(-0.0126909 0.00283366 0)
(-0.0119558 0.00291477 0)
(-0.0117992 0.0026727 0)
(-0.00938925 0.0027629 0)
(-0.00969004 0.0029161 0)
(-0.00678466 0.00245678 0)
(-0.00652283 0.00311029 0)
(-0.00288819 0.00320025 0)
(-0.00170682 0.00358048 0)
(0.00615668 -0.00300117 0)
(0.00799224 -0.000575057 0)
(0.016306 -0.027021 0)
(0.017026 -0.0490116 0)
(0.00406894 0.017874 0)
(0.0130416 0.011088 0)
(0.0124031 0.00858421 0)
(0.0226422 0.0061152 0)
(0.0213441 0.00525238 0)
(0.0293243 0.00519233 0)
(0.0297563 0.00348662 0)
(0.0345459 0.00393168 0)
(0.0354006 0.00350202 0)
(0.0417711 0.00257346 0)
(0.0396866 0.00315779 0)
(0.0463433 0.00259138 0)
(0.047341 0.00220025 0)
(0.0481263 0.00254564 0)
(0.0536532 0.00175468 0)
(0.0524363 0.00171577 0)
(0.0551264 0.00105211 0)
(0.0545907 -0.000144889 0)
(0.0468105 -0.00553014 0)
(0.0313784 -0.0111 0)
)
;

boundaryField
{
    movingWall
    {
        type            fixedValue;
        value           uniform (1 0 0);
    }
    fixedWalls
    {
        type            noSlip;
    }
    frontAndBack
    {
        type            empty;
    }
}


// ************************************************************************* //
