/*--------------------------------*- C++ -*----------------------------------*\
| =========                 |                                                 |
| \\      /  F ield         | OpenFOAM: The Open Source CFD Toolbox           |
|  \\    /   O peration     | Version:  5.x                                   |
|   \\  /    A nd           | Web:      www.OpenFOAM.org                      |
|    \\/     M anipulation  |                                                 |
\*---------------------------------------------------------------------------*/
FoamFile
{
    version     2.0;
    format      ascii;
    class       volVectorField;
    location    "2.9";
    object      U;
}
// * * * * * * * * * * * * * * * * * * * * * * * * * * * * * * * * * * * * * //

dimensions      [0 1 -1 0 0 0 0];

internalField   nonuniform List<vector> 
400
(
(-9.1175e-05 9.08632e-05 0)
(-0.000279183 9.46368e-05 0)
(-0.000471603 9.44092e-05 0)
(-0.00066228 9.38832e-05 0)
(-0.000851402 9.28584e-05 0)
(-0.00103761 9.1056e-05 0)
(-0.00121899 8.81049e-05 0)
(-0.00139275 8.35264e-05 0)
(-0.00155506 7.67239e-05 0)
(-0.00170078 6.69766e-05 0)
(-0.00182318 5.34525e-05 0)
(-0.00191381 3.52412e-05 0)
(-0.00196248 1.14463e-05 0)
(-0.00195672 -1.86918e-05 0)
(-0.00188278 -5.55301e-05 0)
(-0.00172807 -9.80969e-05 0)
(-0.00148321 -0.000143802 0)
(-0.00114614 -0.000188116 0)
(-0.000722372 -0.000224762 0)
(-0.000244895 -0.000239691 0)
(-9.54934e-05 0.000278803 0)
(-0.000292402 0.000290317 0)
(-0.000493904 0.000289568 0)
(-0.000693556 0.000287898 0)
(-0.000891609 0.000284712 0)
(-0.00108672 0.000279176 0)
(-0.00127702 0.000270172 0)
(-0.0014598 0.000256263 0)
(-0.00163135 0.000235639 0)
(-0.00178659 0.0002061 0)
(-0.00191888 0.000165073 0)
(-0.00201968 0.000109736 0)
(-0.00207855 3.73189e-05 0)
(-0.00208238 -5.43618e-05 0)
(-0.00201569 -0.000166765 0)
(-0.00186296 -0.000297667 0)
(-0.00161138 -0.000440184 0)
(-0.00125562 -0.000580757 0)
(-0.000798267 -0.000698709 0)
(-0.00027236 -0.000749719 0)
(-9.57066e-05 0.000472247 0)
(-0.0002934 0.000491904 0)
(-0.000496208 0.000490847 0)
(-0.000697708 0.000488368 0)
(-0.000898535 0.000483493 0)
(-0.00109768 0.000474874 0)
(-0.00129366 0.000460706 0)
(-0.00148426 0.000438634 0)
(-0.00166624 0.000405661 0)
(-0.00183509 0.000358071 0)
(-0.00198457 0.000291417 0)
(-0.00210631 0.000200668 0)
(-0.00218939 8.0636e-05 0)
(-0.00221995 -7.30983e-05 0)
(-0.00217985 -0.000264359 0)
(-0.00204821 -0.000491357 0)
(-0.00180449 -0.000744667 0)
(-0.00143372 -0.00100213 0)
(-0.000930487 -0.00122475 0)
(-0.000322681 -0.00133317 0)
(-9.57218e-05 0.000665134 0)
(-0.000293975 0.000693469 0)
(-0.000498132 0.000692725 0)
(-0.00070181 0.000690417 0)
(-0.000906198 0.000685217 0)
(-0.00111075 0.000675345 0)
(-0.0013146 0.000658411 0)
(-0.00151623 0.000631262 0)
(-0.00171327 0.000589791 0)
(-0.00190211 0.000528763 0)
(-0.00207741 0.000441701 0)
(-0.0022314 0.000320922 0)
(-0.00235302 0.000157919 0)
(-0.00242785 -5.56545e-05 0)
(-0.00243418 -0.000327817 0)
(-0.00234333 -0.000660873 0)
(-0.00212223 -0.00104624 0)
(-0.00173729 -0.0014562 0)
(-0.00116792 -0.00182823 0)
(-0.000417793 -0.00204415 0)
(-9.54677e-05 0.000858057 0)
(-0.000293928 0.000895847 0)
(-0.000499319 0.000896258 0)
(-0.000705266 0.000895428 0)
(-0.000913667 0.000891716 0)
(-0.00112455 0.000883019 0)
(-0.00133781 0.000866511 0)
(-0.00155294 0.000838414 0)
(-0.0017688 0.000793687 0)
(-0.00198323 0.000725673 0)
(-0.00219245 0.000625762 0)
(-0.00239012 0.000483157 0)
(-0.00256598 0.00028492 0)
(-0.00270569 1.65426e-05 0)
(-0.00278508 -0.000335109 0)
(-0.00276667 -0.000783939 0)
(-0.00260005 -0.00132972 0)
(-0.00221882 -0.00194758 0)
(-0.00157699 -0.00254922 0)
(-0.000595067 -0.00298622 0)
(-9.46955e-05 0.00105028 0)
(-0.00029254 0.00109853 0)
(-0.000498586 0.00110114 0)
(-0.000706384 0.00110336 0)
(-0.000918647 0.00110326 0)
(-0.001136 0.00109858 0)
(-0.00135925 0.0010863 0)
(-0.0015891 0.00106231 0)
(-0.00182607 0.001021 0)
(-0.00207009 0.000954632 0)
(-0.00231998 0.000852711 0)
(-0.00257229 0.00070126 0)
(-0.00281968 0.000482185 0)
(-0.00304791 0.00017314 0)
(-0.00323471 -0.000249649 0)
(-0.00333796 -0.000818449 0)
(-0.00328598 -0.00155473 0)
(-0.00296242 -0.00245447 0)
(-0.00228886 -0.003417 0)
(-0.000939588 -0.00433465 0)
(-9.30791e-05 0.00124057 0)
(-0.000288909 0.00130055 0)
(-0.000494511 0.0013066 0)
(-0.000703189 0.00131364 0)
(-0.000918495 0.00131947 0)
(-0.00114157 0.00132187 0)
(-0.00137415 0.00131796 0)
(-0.00161831 0.00130376 0)
(-0.00187656 0.00127364 0)
(-0.0021516 0.00121943 0)
(-0.00244591 0.00112945 0)
(-0.00276074 0.000987067 0)
(-0.0030942 0.000769042 0)
(-0.00343764 0.000443691 0)
(-0.00377681 -3.07747e-05 0)
(-0.00407184 -0.000701625 0)
(-0.00423585 -0.00164268 0)
(-0.00409228 -0.00290107 0)
(-0.00355951 -0.00441981 0)
(-0.0016617 -0.00641906 0)
(-9.01809e-05 0.00142692 0)
(-0.000281917 0.00150039 0)
(-0.000485481 0.00151137 0)
(-0.000693571 0.00152518 0)
(-0.000910487 0.00153923 0)
(-0.0011376 0.00155166 0)
(-0.00137746 0.00156014 0)
(-0.00163353 0.00156147 0)
(-0.00191051 0.00155081 0)
(-0.00221441 0.00152063 0)
(-0.00255249 0.00145944 0)
(-0.00293289 0.00134981 0)
(-0.00336336 0.00116553 0)
(-0.00384817 0.000867151 0)
(-0.00438069 0.000395698 0)
(-0.00495074 -0.000329064 0)
(-0.00548599 -0.00143331 0)
(-0.00576604 -0.00309171 0)
(-0.00585498 -0.00538513 0)
(-0.00332452 -0.0098182 0)
(-8.52796e-05 0.00160669 0)
(-0.000270031 0.00169595 0)
(-0.000469663 0.00171369 0)
(-0.000675398 0.00173636 0)
(-0.000892118 0.00176072 0)
(-0.00112078 0.00178557 0)
(-0.00136446 0.00180977 0)
(-0.00162779 0.00183162 0)
(-0.00191757 0.00184807 0)
(-0.00224315 0.0018536 0)
(-0.00261691 0.00183871 0)
(-0.00305484 0.00178768 0)
(-0.00357709 0.00167489 0)
(-0.00420792 0.00145877 0)
(-0.00497408 0.001072 0)
(-0.00590304 0.000400543 0)
(-0.00700426 -0.000758107 0)
(-0.00810404 -0.00268901 0)
(-0.0097834 -0.00568973 0)
(-0.0069936 -0.0156236 0)
(-7.74788e-05 0.00177407 0)
(-0.000251328 0.00188583 0)
(-0.00044496 0.00191192 0)
(-0.000646652 0.00194684 0)
(-0.000861397 0.00198234 0)
(-0.00108869 0.00202082 0)
(-0.00133158 0.0020624 0)
(-0.00159544 0.00210793 0)
(-0.00188878 0.00215729 0)
(-0.00222406 0.00220864 0)
(-0.00261882 0.00225721 0)
(-0.0030974 0.00229366 0)
(-0.00369349 0.00230106 0)
(-0.00445333 0.00224837 0)
(-0.00544349 0.00208041 0)
(-0.006791 0.00170798 0)
(-0.00859741 0.000892276 0)
(-0.0106652 -0.000945096 0)
(-0.0151202 -0.00422134 0)
(-0.0108405 -0.0268919 0)
(-6.15226e-05 0.00193003 0)
(-0.00021999 0.00206142 0)
(-0.000408484 0.00210118 0)
(-0.000605109 0.00214644 0)
(-0.000818339 0.00219711 0)
(-0.00104092 0.00225006 0)
(-0.00127759 0.00231003 0)
(-0.00153317 0.00238022 0)
(-0.00181715 0.00246482 0)
(-0.00214352 0.0025666 0)
(-0.00253207 0.00268637 0)
(-0.00301076 0.00282223 0)
(-0.00362147 0.00296847 0)
(-0.00442708 0.00311414 0)
(-0.00551348 0.00324022 0)
(-0.00709334 0.0033467 0)
(-0.00955114 0.00343221 0)
(-0.0112937 0.00155471 0)
(-0.0181806 -0.00292905 0)
(-0.00486564 -0.0458945 0)
(-4.72526e-05 0.00203176 0)
(-0.000181567 0.00227777 0)
(-0.000359577 0.00229689 0)
(-0.000551043 0.00240937 0)
(-0.000757632 0.00244404 0)
(-0.000975857 0.00250321 0)
(-0.00120156 0.00256343 0)
(-0.00144092 0.0026478 0)
(-0.00170282 0.0027626 0)
(-0.0020032 0.0029168 0)
(-0.00236449 0.00311991 0)
(-0.00281795 0.00338627 0)
(-0.00340661 0.00373301 0)
(-0.00419059 0.00418234 0)
(-0.00522081 0.00475138 0)
(-0.00651214 0.00539254 0)
(-0.00933223 0.00654748 0)
(-0.0075731 0.00332974 0)
(-0.0161532 -0.00456363 0)
(0.00778404 -0.0565802 0)
(7.36532e-05 0.00219026 0)
(-6.44871e-05 0.00228889 0)
(-0.000277675 0.00241104 0)
(-0.000457583 0.0024056 0)
(-0.000726361 0.00251453 0)
(-0.000922432 0.00259048 0)
(-0.0011341 0.00270316 0)
(-0.00133484 0.00283205 0)
(-0.00154886 0.0029912 0)
(-0.00178668 0.00319038 0)
(-0.00206254 0.00344775 0)
(-0.00239667 0.00377991 0)
(-0.00282301 0.00421687 0)
(-0.00340465 0.00478986 0)
(-0.00427965 0.00557603 0)
(-0.00478929 0.00628625 0)
(-0.00832445 0.00765546 0)
(-0.00401727 0.00331773 0)
(-0.0137501 -0.0100297 0)
(0.0093808 -0.0541653 0)
(-7.69343e-05 0.00192358 0)
(-0.000103548 0.00283867 0)
(-0.000234621 0.00275362 0)
(-0.000449315 0.00321223 0)
(-0.000568419 0.00309084 0)
(-0.000786134 0.00319433 0)
(-0.000958082 0.00316992 0)
(-0.00115181 0.0032333 0)
(-0.00134392 0.00334211 0)
(-0.00154692 0.00354639 0)
(-0.00177628 0.00385376 0)
(-0.002051 0.00431617 0)
(-0.00239892 0.00496204 0)
(-0.00282487 0.00583309 0)
(-0.00366476 0.00722992 0)
(-0.00340206 0.0081655 0)
(-0.00702784 0.00958543 0)
(-0.00223554 0.00474895 0)
(-0.0116061 -0.0147996 0)
(0.00510033 -0.0591415 0)
(0.000779418 0.00256552 0)
(0.000638671 0.002296 0)
(4.01e-05 0.00259324 0)
(-0.000135258 0.0022801 0)
(-0.000771081 0.00251826 0)
(-0.000850849 0.00252711 0)
(-0.0011031 0.00271321 0)
(-0.00116725 0.00288416 0)
(-0.00124036 0.00311643 0)
(-0.00128076 0.00337954 0)
(-0.00130212 0.00374023 0)
(-0.00130712 0.00415687 0)
(-0.00134418 0.00476643 0)
(-0.00115798 0.00541289 0)
(-0.00187553 0.00647915 0)
(-0.000762706 0.00736424 0)
(-0.00429271 0.00780047 0)
(-0.000306139 0.00402485 0)
(-0.0085924 -0.0180368 0)
(0.00695738 -0.0658125 0)
(-7.05665e-05 7.28695e-05 0)
(2.17123e-05 0.00357305 0)
(0.000199908 0.00368435 0)
(-0.000295062 0.00468332 0)
(-0.000167641 0.00417318 0)
(-0.000511273 0.004283 0)
(-0.00054423 0.0039092 0)
(-0.000707175 0.00395588 0)
(-0.000817022 0.00387469 0)
(-0.000895143 0.00406751 0)
(-0.000970687 0.00425874 0)
(-0.000977724 0.00475202 0)
(-0.00106096 0.00543406 0)
(-0.000891342 0.00631904 0)
(-0.00132444 0.0082951 0)
(-4.65599e-05 0.010071 0)
(-0.00219568 0.0111979 0)
(0.00385364 0.00826635 0)
(-0.00357084 -0.0187637 0)
(0.00873227 -0.0619026 0)
(0.0022183 0.00308597 0)
(0.00202283 0.00284724 0)
(-0.00147447 0.00276952 0)
(-0.00131274 0.00196525 0)
(-0.00237348 0.00211088 0)
(-0.00183482 0.00203807 0)
(-0.00195229 0.00226932 0)
(-0.00159902 0.00242898 0)
(-0.00142082 0.00273691 0)
(-0.0011718 0.00290296 0)
(-0.000836302 0.00337887 0)
(-0.000423985 0.00361412 0)
(-0.000153253 0.00435164 0)
(0.0011291 0.00492936 0)
(0.0011862 0.0055285 0)
(0.0034941 0.00684514 0)
(0.00335609 0.00402564 0)
(0.00578387 0.00370758 0)
(0.000139486 -0.021605 0)
(0.00753817 -0.0593603 0)
(0.00157683 -0.00493947 0)
(0.00531646 0.00606182 0)
(0.00756996 0.00667638 0)
(0.00552291 0.00658833 0)
(0.00584125 0.00509507 0)
(0.00432938 0.00523197 0)
(0.00367293 0.0040864 0)
(0.00304816 0.00459573 0)
(0.00216933 0.00398486 0)
(0.00211122 0.00435103 0)
(0.00142624 0.00416311 0)
(0.00187392 0.00458363 0)
(0.00160397 0.00470887 0)
(0.00267269 0.00515626 0)
(0.00311259 0.00690378 0)
(0.00409378 0.00907561 0)
(0.00537015 0.00935848 0)
(0.00774423 0.0127072 0)
(0.00684674 -0.0162357 0)
(0.0107441 -0.056365 0)
(-0.0180789 -0.00328439 0)
(-0.00872543 -0.000309335 0)
(-0.0207085 0.00151271 0)
(-0.0109244 0.00296762 0)
(-0.0178422 0.00222726 0)
(-0.0121558 0.00317465 0)
(-0.0143674 0.00258304 0)
(-0.0125737 0.00289083 0)
(-0.0115055 0.0029235 0)
(-0.0116174 0.00265919 0)
(-0.00909522 0.00286021 0)
(-0.00942618 0.00281263 0)
(-0.0066665 0.00251752 0)
(-0.00622119 0.00320145 0)
(-0.00281196 0.00312104 0)
(-0.00121179 0.00357839 0)
(0.00634652 -0.00248515 0)
(0.00905162 -0.000694995 0)
(0.0170469 -0.0265536 0)
(0.0168257 -0.0493951 0)
(0.00436922 0.0177483 0)
(0.0128085 0.0111259 0)
(0.0128732 0.00864477 0)
(0.0226168 0.00603238 0)
(0.0215129 0.00541871 0)
(0.0300024 0.00508723 0)
(0.0296538 0.00339298 0)
(0.0349343 0.00426112 0)
(0.036219 0.00316415 0)
(0.0416061 0.00272966 0)
(0.0401149 0.00333799 0)
(0.0476286 0.00224267 0)
(0.0463998 0.00249258 0)
(0.0496775 0.00244893 0)
(0.0537652 0.00150444 0)
(0.0524072 0.00201778 0)
(0.0561051 0.000858816 0)
(0.0545196 -0.000414825 0)
(0.0474356 -0.00581172 0)
(0.031846 -0.0114838 0)
)
;

boundaryField
{
    movingWall
    {
        type            fixedValue;
        value           uniform (1 0 0);
    }
    fixedWalls
    {
        type            noSlip;
    }
    frontAndBack
    {
        type            empty;
    }
}


// ************************************************************************* //
