/*--------------------------------*- C++ -*----------------------------------*\
| =========                 |                                                 |
| \\      /  F ield         | OpenFOAM: The Open Source CFD Toolbox           |
|  \\    /   O peration     | Version:  5.x                                   |
|   \\  /    A nd           | Web:      www.OpenFOAM.org                      |
|    \\/     M anipulation  |                                                 |
\*---------------------------------------------------------------------------*/
FoamFile
{
    version     2.0;
    format      ascii;
    class       volVectorField;
    location    "13.6";
    object      U;
}
// * * * * * * * * * * * * * * * * * * * * * * * * * * * * * * * * * * * * * //

dimensions      [0 1 -1 0 0 0 0];

internalField   nonuniform List<vector> 
400
(
(-0.0131059 0.0102189 0)
(-0.0331619 0.00605143 0)
(-0.0400327 0.000648216 0)
(-0.0445417 0.00214555 0)
(-0.0456184 -0.00208442 0)
(-0.0478402 0.00164721 0)
(-0.0471815 -0.0022389 0)
(-0.04839 0.000291091 0)
(-0.0476426 -0.00160371 0)
(-0.0478883 -0.000713706 0)
(-0.0471705 -0.000595482 0)
(-0.048002 -0.000137141 0)
(-0.0473449 -9.45417e-05 0)
(-0.0491178 -0.000961152 0)
(-0.0464739 -0.00105223 0)
(-0.048154 -0.00150414 0)
(-0.0431946 -0.00210103 0)
(-0.0404484 -0.00508955 0)
(-0.0382477 -0.00779174 0)
(-0.00273079 -0.0134848 0)
(-0.00869106 0.0286825 0)
(-0.0178696 0.0204588 0)
(-0.020584 0.0103096 0)
(-0.0209335 0.00474715 0)
(-0.0198108 0.002483 0)
(-0.0233128 0.00184755 0)
(-0.016568 0.000805741 0)
(-0.0243539 0.000863121 0)
(-0.0147998 0.000591768 0)
(-0.0248107 0.000498361 0)
(-0.0154098 0.0011116 0)
(-0.0231694 -1.42983e-05 0)
(-0.0178383 0.000961174 0)
(-0.0213193 -0.00142514 0)
(-0.0208718 0.000184273 0)
(-0.0182355 -0.00247711 0)
(-0.0220475 -0.00191709 0)
(-0.0128419 -0.0101502 0)
(-0.0297755 -0.0217288 0)
(-0.00237862 -0.0384354 0)
(-0.00615597 0.038985 0)
(-0.00799644 0.0243053 0)
(-0.00779771 0.00648453 0)
(-0.00884932 0.00249776 0)
(-0.00364012 -0.000337047 0)
(-0.00889564 -0.00120154 0)
(-0.00280056 -0.00122544 0)
(-0.0077792 -0.00128341 0)
(-0.00445072 -0.00126224 0)
(-0.00614926 -0.000636701 0)
(-0.00621411 -0.00105276 0)
(-0.00432172 0.000177481 0)
(-0.00853652 0.000603832 0)
(-0.00353545 -0.000118937 0)
(-0.0116514 -0.000815803 0)
(-0.00168054 -0.00291824 0)
(-0.0116566 -0.00216743 0)
(0.0020148 -0.000520882 0)
(-0.00729454 -0.00336413 0)
(0.000850174 -0.0431368 0)
(-0.00361314 0.0421606 0)
(-0.00283664 0.0258339 0)
(-0.00166301 0.00800014 0)
(-0.00497363 0.00261534 0)
(-0.00150551 0.000791006 0)
(-0.00537132 0.00147614 0)
(-0.00373087 0.000145058 0)
(-0.00604767 0.00164515 0)
(-0.00552037 4.18817e-05 0)
(-0.00567492 0.00120542 0)
(-0.00617206 0.000391309 0)
(-0.00409672 0.00135436 0)
(-0.00631576 0.00107934 0)
(-0.00105717 0.000333272 0)
(-0.00580339 -0.000539609 0)
(0.000132295 -0.00445447 0)
(-0.00280912 -0.0053116 0)
(-0.00206715 -0.016653 0)
(-0.00996471 -0.0233952 0)
(0.00236466 -0.0498663 0)
(-0.00158957 0.0433039 0)
(-0.00176893 0.0234685 0)
(-0.000303495 0.00861728 0)
(-0.00134659 0.00189659 0)
(-0.00240278 0.00045123 0)
(-0.00407712 0.000476799 0)
(-0.00466625 -6.95943e-05 0)
(-0.00519736 8.01957e-05 0)
(-0.0055569 -0.00120876 0)
(-0.00440713 -0.000521763 0)
(-0.00569164 -0.00194148 0)
(-0.0009449 -0.000830627 0)
(-0.00514776 -0.00124575 0)
(0.00199228 -0.00180193 0)
(-0.00368168 -0.000781344 0)
(0.00269234 -0.00624526 0)
(-0.00461403 0.000942526 0)
(0.00486756 0.004181 0)
(-0.00271234 -0.00105591 0)
(0.00365121 -0.0480145 0)
(-0.000354912 0.0453013 0)
(-0.00206837 0.0252525 0)
(0.00132321 0.00652287 0)
(-0.00137181 0.00552919 0)
(-0.0026178 0.00323285 0)
(-0.00465442 0.00337862 0)
(-0.00527041 0.00175866 0)
(-0.00607771 0.00177163 0)
(-0.00655939 0.00011141 0)
(-0.00561096 0.000509826 0)
(-0.00654355 -0.00222645 0)
(-0.00188943 0.000184008 0)
(-0.0060458 -0.00114005 0)
(0.000149092 -0.00133044 0)
(-0.00517958 -0.000928925 0)
(-0.000189194 -0.00363563 0)
(-0.00762135 -0.00682464 0)
(0.00351915 -0.0181982 0)
(-0.00737905 -0.0248347 0)
(0.00344458 -0.0533189 0)
(6.32534e-05 0.0454319 0)
(-0.00101312 0.0219499 0)
(-0.00129 0.00743898 0)
(-0.00207382 0.00534962 0)
(-0.00244373 0.004303 0)
(-0.00527439 0.00277269 0)
(-0.00601178 0.00216994 0)
(-0.00655886 0.000862492 0)
(-0.00736515 -0.00102757 0)
(-0.00604117 -0.000981116 0)
(-0.0068172 -0.00540433 0)
(-8.68262e-06 -0.00210748 0)
(-0.00605877 -0.00281633 0)
(0.00263152 -0.00385859 0)
(-0.00497789 0.000204454 0)
(0.00599602 -0.00569742 0)
(-0.0027631 -0.00177774 0)
(0.00293888 0.0023232 0)
(-0.00327991 0.00183122 0)
(0.00392864 -0.0496509 0)
(0.00215413 0.0445973 0)
(-0.001393 0.0268704 0)
(0.000868018 0.00792207 0)
(-0.00228382 0.00675123 0)
(-0.00513004 0.00666572 0)
(-0.00581898 0.00631424 0)
(-0.00839167 0.00321786 0)
(-0.0084781 0.00258665 0)
(-0.00919399 0.0001565 0)
(-0.00852438 -0.000440295 0)
(-0.00663947 -0.00786174 0)
(-0.00245899 -0.000517771 0)
(-0.00663884 -0.00265802 0)
(-0.00208211 -0.00226202 0)
(-0.00825896 -0.00355543 0)
(0.00289188 -0.00514427 0)
(-0.00980663 -0.00371505 0)
(0.0042554 -0.017247 0)
(-0.00682701 -0.0257111 0)
(0.00387315 -0.0551827 0)
(-0.0013737 0.0466754 0)
(0.000910832 0.0219902 0)
(-0.00168683 0.0088468 0)
(-0.00375758 0.0101409 0)
(-0.00445086 0.00836718 0)
(-0.0071246 0.00586684 0)
(-0.00812375 0.00589291 0)
(-0.00946804 0.00120868 0)
(-0.0102488 -0.000769207 0)
(-0.00914139 -0.00296806 0)
(-0.00337416 -0.0130941 0)
(-0.00183808 -0.00284135 0)
(-0.00503506 -0.00317492 0)
(-0.00104883 -0.00407606 0)
(-0.00686226 -0.00455287 0)
(0.00169817 -0.00649357 0)
(-0.00726261 -0.00140194 0)
(0.00386194 -0.00259776 0)
(-0.00395821 0.00130865 0)
(0.00375365 -0.0510477 0)
(0.00296766 0.0429029 0)
(-0.000180916 0.028069 0)
(-0.000749763 0.011868 0)
(-0.00309804 0.0102285 0)
(-0.00307012 0.00958623 0)
(-0.00805212 0.00942876 0)
(-0.0119277 0.00601072 0)
(-0.0133226 0.00497542 0)
(-0.0132545 -0.000574169 0)
(-0.00865387 -0.00634301 0)
(-0.00245667 -0.0141242 0)
(-0.00501725 0.00116552 0)
(-0.00321772 -0.00166582 0)
(-0.00507174 -0.000245652 0)
(-0.00675093 -0.00431891 0)
(-0.0083422 -0.00405239 0)
(-0.00984744 -0.00489995 0)
(-0.00202716 -0.0200897 0)
(-0.0062912 -0.0227871 0)
(0.0047665 -0.0574626 0)
(-0.00166316 0.0447395 0)
(0.00128725 0.0253883 0)
(0.00075498 0.0132877 0)
(-0.00155036 0.0110292 0)
(-0.00609632 0.0148705 0)
(-0.0123562 0.0156235 0)
(-0.017082 0.0124729 0)
(-0.0176767 0.00280956 0)
(-0.0141292 -0.00526546 0)
(-0.00823755 -0.0133136 0)
(-0.00131886 -0.0176033 0)
(-0.00151983 -0.00368631 0)
(0.00177395 -0.00297326 0)
(-0.00199173 -0.00290252 0)
(-0.00430048 -0.00141198 0)
(-0.00401917 -0.00658665 0)
(-0.00447338 -0.0071976 0)
(-0.00162197 -0.00924019 0)
(-0.00585194 -0.00811834 0)
(0.00354371 -0.0530106 0)
(-0.000709076 0.0439793 0)
(-0.000777787 0.0248489 0)
(-0.00103714 0.0137369 0)
(-0.00487219 0.0181586 0)
(-0.0123871 0.0181201 0)
(-0.0177792 0.0170664 0)
(-0.0195184 0.0109565 0)
(-0.0159389 0.000859566 0)
(-0.01528 -0.0114941 0)
(-0.0097124 -0.0214883 0)
(-0.00334272 -0.0202964 0)
(-0.00317011 -0.00127331 0)
(0.00372147 0.000111786 0)
(0.00167304 0.00605944 0)
(0.00302622 0.000474781 0)
(0.00152521 -0.00389587 0)
(-5.35877e-05 -0.00386004 0)
(0.00333788 -0.0173427 0)
(-0.00642448 -0.0243945 0)
(0.00596352 -0.0578255 0)
(0.00016934 0.0439527 0)
(0.0014014 0.0257297 0)
(-0.000325588 0.0180723 0)
(-0.00481 0.0206007 0)
(-0.00594618 0.0254618 0)
(-0.00854519 0.0229964 0)
(-0.00941849 0.0123624 0)
(-0.00551533 -0.00109208 0)
(-0.00474613 -0.0116423 0)
(-0.00127777 -0.0256551 0)
(0.00030801 -0.0263841 0)
(0.0027356 -0.0116363 0)
(0.00654877 -0.00861983 0)
(0.011692 -0.00443521 0)
(0.00746634 -0.00076456 0)
(0.0131837 -0.00614184 0)
(0.000744597 -0.0101403 0)
(0.0135579 -0.00713459 0)
(-0.006892 -0.0123145 0)
(0.00611368 -0.0530703 0)
(-0.00101313 0.0453878 0)
(0.00169021 0.0262926 0)
(-0.000136367 0.0199829 0)
(0.00484248 0.0231834 0)
(-0.00261194 0.0248311 0)
(0.00357238 0.0200976 0)
(0.00162577 0.010612 0)
(0.00887796 -0.00361049 0)
(0.00556531 -0.0131696 0)
(0.0136919 -0.0244485 0)
(0.00542194 -0.0242435 0)
(0.00557538 -0.00616302 0)
(0.00186847 -0.00502379 0)
(-0.00514054 0.00407385 0)
(-0.00435816 0.00198822 0)
(-0.00662539 0.00237049 0)
(-0.0114246 0.000809172 0)
(0.00162893 -0.00880437 0)
(-0.0101875 -0.0111959 0)
(0.0094418 -0.0598207 0)
(-0.00056885 0.0406355 0)
(0.00190619 0.0225517 0)
(0.00436672 0.0152102 0)
(0.0029841 0.0225812 0)
(0.0111579 0.0244602 0)
(0.0118665 0.0190239 0)
(0.0150134 0.00891829 0)
(0.0222907 -0.00506417 0)
(0.0159464 -0.0170366 0)
(0.0229645 -0.0238248 0)
(0.0119584 -0.0209174 0)
(0.0061007 -0.0100663 0)
(0.0125377 0.00186276 0)
(0.00349715 -0.00044499 0)
(-0.00202731 0.000758082 0)
(-0.000331422 -0.00241344 0)
(-0.00382179 -0.0201722 0)
(0.00279945 -0.0148221 0)
(-0.0113557 -0.025215 0)
(0.00609314 -0.0585179 0)
(0.000984577 0.045546 0)
(0.00483003 0.026182 0)
(0.00729309 0.0205808 0)
(0.0137524 0.0174461 0)
(0.0160297 0.0176084 0)
(0.023522 0.0188354 0)
(0.0253661 0.00133307 0)
(0.0268982 -0.0033749 0)
(0.0266882 -0.0113047 0)
(0.0320352 -0.0186195 0)
(0.0119761 -0.0114924 0)
(0.0110015 -0.00288744 0)
(0.00642467 -0.00301517 0)
(0.0157568 0.0213174 0)
(0.00724499 0.00902087 0)
(0.0211496 0.00356011 0)
(0.00923866 0.00466796 0)
(0.00510337 0.00163193 0)
(-0.00414604 -0.00502642 0)
(0.00996582 -0.0599731 0)
(-0.00280912 0.0361576 0)
(0.00820059 0.0119289 0)
(-0.00109479 0.00624497 0)
(0.0163291 0.00910487 0)
(0.00860221 0.0144914 0)
(0.0230987 0.0066817 0)
(0.026775 0.00439297 0)
(0.027694 -0.00525427 0)
(0.032585 -0.0213673 0)
(0.0317966 -0.00941919 0)
(0.0125882 -0.000596361 0)
(0.00127696 -0.00500281 0)
(-0.0123154 -0.00324479 0)
(-0.0134763 -0.00384931 0)
(-0.00169694 -0.0091082 0)
(-0.0102114 -0.00114507 0)
(-0.00619648 -0.0102465 0)
(0.0136085 -0.00504773 0)
(-0.00576778 -0.0374878 0)
(0.00648097 -0.0591236 0)
(0.00330159 0.0362712 0)
(0.00914643 0.0247412 0)
(0.00924004 0.0144639 0)
(0.0155777 0.00908279 0)
(0.0208743 0.00784092 0)
(0.0302024 0.00319123 0)
(0.0297318 -0.00495129 0)
(0.0365604 -0.0132639 0)
(0.0329552 -0.0123171 0)
(0.0292534 -0.00251384 0)
(0.0272695 0.0149899 0)
(0.0327187 0.0177973 0)
(0.02772 0.0155419 0)
(0.0379145 0.0144608 0)
(0.0344052 0.0030125 0)
(0.0343025 0.00908181 0)
(0.0193732 -0.0124665 0)
(0.0176187 0.000291292 0)
(0.00248062 0.0126304 0)
(0.0152491 -0.0513331 0)
(0.00227542 0.0264351 0)
(0.0158712 0.012134 0)
(0.0139583 -0.00167179 0)
(0.0191998 -0.0044939 0)
(0.0154619 -0.00141534 0)
(0.0168938 0.00278927 0)
(0.0155615 -0.00075049 0)
(0.00128191 -0.00846315 0)
(-0.0167309 -0.00886837 0)
(-0.0238226 -0.00502991 0)
(-0.0193454 -0.00282103 0)
(-0.0106412 -0.00794044 0)
(-0.016622 -0.00906709 0)
(0.00423862 -0.00738399 0)
(-0.0138 -0.00624139 0)
(0.00278936 0.0100269 0)
(0.00343383 0.00585558 0)
(-0.0141093 0.00382539 0)
(0.0213808 -0.0373742 0)
(0.012322 -0.0571283 0)
(0.00741944 0.0161778 0)
(0.0301093 0.0132312 0)
(0.0369957 0.0127818 0)
(0.0403448 0.00901916 0)
(0.0422428 0.00681659 0)
(0.0429424 0.00472777 0)
(0.0493421 0.005772 0)
(0.0534073 0.0121608 0)
(0.0540477 0.0131661 0)
(0.0549315 0.00967276 0)
(0.056777 0.00416486 0)
(0.0593817 0.0069986 0)
(0.0561596 0.00846797 0)
(0.0582216 0.00515453 0)
(0.0537566 0.00842868 0)
(0.0572543 -0.00537508 0)
(0.0565288 0.000861267 0)
(0.0599114 -0.00849532 0)
(0.0535288 -0.00704762 0)
(0.0230679 0.000182324 0)
)
;

boundaryField
{
    movingWall
    {
        type            fixedValue;
        value           uniform (1 0 0);
    }
    fixedWalls
    {
        type            noSlip;
    }
    frontAndBack
    {
        type            empty;
    }
}


// ************************************************************************* //
