/*--------------------------------*- C++ -*----------------------------------*\
| =========                 |                                                 |
| \\      /  F ield         | OpenFOAM: The Open Source CFD Toolbox           |
|  \\    /   O peration     | Version:  5.x                                   |
|   \\  /    A nd           | Web:      www.OpenFOAM.org                      |
|    \\/     M anipulation  |                                                 |
\*---------------------------------------------------------------------------*/
FoamFile
{
    version     2.0;
    format      ascii;
    class       volVectorField;
    location    "19.5";
    object      U;
}
// * * * * * * * * * * * * * * * * * * * * * * * * * * * * * * * * * * * * * //

dimensions      [0 1 -1 0 0 0 0];

internalField   nonuniform List<vector> 
400
(
(-0.0176454 0.00750594 0)
(-0.0410266 0.00857614 0)
(-0.05032 0.00205635 0)
(-0.0566746 0.00178602 0)
(-0.0584707 -0.00067393 0)
(-0.0617129 -0.000242834 0)
(-0.0612686 -0.000749044 0)
(-0.0638603 -0.000252781 0)
(-0.0618865 2.80949e-05 0)
(-0.0644536 4.53171e-05 0)
(-0.0622268 0.00052389 0)
(-0.0649219 -0.00016639 0)
(-0.0620658 6.2075e-05 0)
(-0.0638613 -0.00125006 0)
(-0.0605038 -0.00168466 0)
(-0.061797 -0.00368436 0)
(-0.0568969 -0.00531802 0)
(-0.0547255 -0.00934159 0)
(-0.0442388 -0.0135729 0)
(-0.0132849 -0.0270808 0)
(-0.0114868 0.0405361 0)
(-0.0218881 0.0246836 0)
(-0.0251956 0.0132774 0)
(-0.0275332 0.0065865 0)
(-0.0285901 0.00386372 0)
(-0.0297919 0.00292405 0)
(-0.0299196 0.00158415 0)
(-0.0313693 0.00198235 0)
(-0.029016 -3.11043e-05 0)
(-0.032081 0.000471312 0)
(-0.0287197 -0.0012106 0)
(-0.0340647 6.81051e-05 0)
(-0.0279154 -0.00158598 0)
(-0.0344318 -0.000628228 0)
(-0.0266232 -0.00151805 0)
(-0.0336109 -0.00185379 0)
(-0.0267274 -0.00186624 0)
(-0.028291 -0.0103553 0)
(-0.0304892 -0.0181809 0)
(-0.00253744 -0.0455816 0)
(-0.00685218 0.0452875 0)
(-0.0106934 0.0296301 0)
(-0.0111682 0.0121586 0)
(-0.0133146 0.00638742 0)
(-0.0128289 0.00241312 0)
(-0.0153609 0.000853073 0)
(-0.0149722 0.000145863 0)
(-0.0169357 -0.000566916 0)
(-0.0141631 -0.000489468 0)
(-0.0175316 0.000498056 0)
(-0.0135902 0.0010534 0)
(-0.0200967 0.000558521 0)
(-0.0149865 -0.00025338 0)
(-0.0198267 -0.00140181 0)
(-0.0141415 -0.00037132 0)
(-0.0131952 -0.00355781 0)
(-0.0146221 -0.00394655 0)
(0.0042228 -0.00822143 0)
(-0.0127802 -0.020843 0)
(-0.000647718 -0.0576629 0)
(-0.00372299 0.0551396 0)
(-0.00535211 0.0339162 0)
(-0.005361 0.0140192 0)
(-0.00533713 0.00907343 0)
(-0.00518207 0.00481211 0)
(-0.00637467 0.00466881 0)
(-0.00568534 0.00316123 0)
(-0.00858981 0.00186341 0)
(-0.00650681 0.000838348 0)
(-0.00971979 0.000342753 0)
(-0.00730462 0.000857021 0)
(-0.0117101 0.000692648 0)
(-0.00836197 -0.00059645 0)
(-0.0103251 -0.00496378 0)
(-0.0116294 -0.00615063 0)
(-0.00989068 -0.00833528 0)
(-0.0155419 -0.0185849 0)
(-0.00242386 -0.0180202 0)
(-0.00884282 -0.0154242 0)
(0.00288254 -0.0607588 0)
(-0.0029758 0.0541138 0)
(-0.00201912 0.0323537 0)
(-0.00184714 0.011078 0)
(-0.00237578 0.00659663 0)
(9.05279e-06 0.00298155 0)
(-0.00186012 0.00195013 0)
(-0.000917597 0.00161413 0)
(-0.00285458 0.000784406 0)
(-0.00293743 0.000172941 0)
(-0.00563322 0.00084909 0)
(-0.00399178 0.00266226 0)
(-0.00285071 0.00167316 0)
(-0.00165431 -0.000115724 0)
(0.00199048 0.0010585 0)
(-0.0035642 0.00195093 0)
(0.00719445 0.000325211 0)
(-0.00615526 -0.00462201 0)
(0.00350851 -0.0162371 0)
(-0.00501113 -0.0186793 0)
(0.00315839 -0.0639383 0)
(-0.00159816 0.0582736 0)
(-0.000603439 0.0346564 0)
(-0.00207024 0.0137751 0)
(0.00199531 0.0075995 0)
(0.000407812 0.00465225 0)
(-0.00036491 0.00523995 0)
(0.000224746 0.00482719 0)
(-0.00151838 0.00359323 0)
(-0.00144073 0.00443159 0)
(-0.00187229 0.00132843 0)
(-0.00503941 -0.00115661 0)
(-0.00660838 -0.00279578 0)
(-0.00530317 -0.00455834 0)
(0.00155425 -0.00350882 0)
(-0.00865732 -0.011427 0)
(0.0121845 -0.00630248 0)
(-0.00398227 -0.0160275 0)
(0.000569428 -0.0200032 0)
(-0.00448914 -0.0186831 0)
(0.00354533 -0.0642663 0)
(-0.00222379 0.0566946 0)
(0.00012317 0.0320773 0)
(-0.000354045 0.0073791 0)
(-0.000145953 0.00380986 0)
(0.000113954 0.0046687 0)
(0.000571999 0.00196549 0)
(0.00118103 0.00209576 0)
(0.00234054 0.00250487 0)
(0.000305097 0.000186053 0)
(0.00171235 0.00373579 0)
(-0.00154197 0.00760646 0)
(0.000640876 0.00117697 0)
(-0.00471053 -0.00853358 0)
(-0.00136488 0.00341989 0)
(-0.00763605 -0.00811133 0)
(0.00522736 -0.00477377 0)
(-0.00967299 0.00873575 0)
(-0.00123013 -0.0178702 0)
(-0.00535142 -0.0163791 0)
(0.00493627 -0.0664538 0)
(-0.00152927 0.0583648 0)
(0.000761632 0.0328894 0)
(-0.00218475 0.0142501 0)
(0.00124506 0.00726967 0)
(8.45838e-05 0.00449673 0)
(0.000718021 0.00432726 0)
(-0.00102473 0.00392361 0)
(-0.0023982 0.00424152 0)
(-0.00450155 0.00595767 0)
(-0.00710557 0.00278102 0)
(-0.00481855 0.00117244 0)
(-0.000208112 -0.000274097 0)
(-0.00233808 0.000533019 0)
(-0.00727748 -0.00228508 0)
(-0.00823357 -0.018405 0)
(0.00174829 -0.004778 0)
(-0.00801444 -0.00910025 0)
(0.000370554 -0.0275674 0)
(-0.00610435 -0.0288253 0)
(0.0025752 -0.0678879 0)
(-0.00188514 0.0579598 0)
(0.000928509 0.0335756 0)
(-0.000811021 0.00696392 0)
(0.000312756 0.00175768 0)
(-0.0019009 0.00459722 0)
(0.00118299 0.00281674 0)
(0.000847475 0.00434168 0)
(0.00109338 0.00615037 0)
(0.000147417 0.00368598 0)
(0.00837883 0.00394204 0)
(0.00528999 0.000332057 0)
(0.00525125 -0.0018836 0)
(-0.00185446 -0.00295792 0)
(0.00092923 0.00756262 0)
(-0.00574228 -0.0156006 0)
(0.00136746 -0.00710132 0)
(-0.00430472 0.0112252 0)
(0.00878851 -0.0183744 0)
(-0.00451984 -0.016246 0)
(0.00515599 -0.0652329 0)
(-0.00152933 0.0586332 0)
(0.000273178 0.0315786 0)
(-0.00392367 0.0139838 0)
(-0.000742299 0.00842129 0)
(-0.00206203 0.0041093 0)
(0.00152553 0.00181515 0)
(0.000532302 0.0048735 0)
(0.00433939 0.00498664 0)
(0.00334589 -0.00115465 0)
(0.00761677 -0.00074957 0)
(0.00148399 0.00502433 0)
(-0.00106662 0.00772477 0)
(-0.00255947 0.00568497 0)
(-0.00147718 0.00287695 0)
(-0.00704054 -0.0141128 0)
(-0.0160786 -0.00728451 0)
(-0.00215235 -0.0140309 0)
(0.00790683 -0.0270197 0)
(-0.00324922 -0.0247415 0)
(0.00395367 -0.0680945 0)
(-0.00166729 0.0589069 0)
(0.0012859 0.0348591 0)
(-4.79697e-05 0.00733967 0)
(-0.000503515 -3.97994e-05 0)
(0.000805074 0.00148798 0)
(0.000693022 8.40776e-05 0)
(0.0025123 0.000533199 0)
(0.00798091 0.00388283 0)
(0.0041536 -0.000512439 0)
(0.00210415 0.00555741 0)
(-0.000709514 0.00703189 0)
(0.000133798 0.000938748 0)
(0.0070619 -0.0029801 0)
(0.00401002 0.00781141 0)
(-0.00281502 -0.00124776 0)
(-0.00109354 -0.013038 0)
(-0.00272403 -0.0130502 0)
(-0.00625914 -0.0195121 0)
(-0.0066559 -0.0110825 0)
(0.00708336 -0.0661901 0)
(-0.00075617 0.0593019 0)
(-0.000222547 0.0334578 0)
(-0.0030456 0.0165978 0)
(0.00516153 0.00874314 0)
(0.000481638 0.00338467 0)
(0.000759342 0.000303407 0)
(-0.000792383 -0.00203524 0)
(0.0070879 0.00325187 0)
(0.00442649 0.00485226 0)
(0.00176334 0.00572866 0)
(0.00163455 0.0084116 0)
(0.00305033 0.00149996 0)
(0.00153378 0.00133156 0)
(0.00242032 0.0161436 0)
(0.00228027 -0.00831343 0)
(-0.00310648 -0.00826571 0)
(0.00220043 -0.0110499 0)
(-0.00201429 -0.0256067 0)
(-0.00815201 -0.0382754 0)
(0.00523754 -0.0709987 0)
(-0.00141356 0.0593202 0)
(0.00108116 0.0342101 0)
(-0.000937019 0.000180391 0)
(-0.00285742 -0.00398011 0)
(-0.00452487 0.00528098 0)
(-0.00113611 0.000892262 0)
(-0.00718635 -0.00644431 0)
(0.000466766 -9.41669e-05 0)
(0.00424054 0.00289264 0)
(0.00752731 0.0068484 0)
(0.00544987 0.00524576 0)
(0.0034043 0.000699998 0)
(0.00123066 -0.003745 0)
(0.000106147 0.00809904 0)
(0.000786307 0.00430625 0)
(0.00308689 -0.0113986 0)
(-0.00122414 -0.0124081 0)
(0.0142991 -0.00966396 0)
(-0.00573763 -0.0162783 0)
(0.00830466 -0.0628981 0)
(0.000889094 0.0589341 0)
(-0.000256988 0.0358088 0)
(0.0002206 0.0201045 0)
(-0.0013137 0.0145253 0)
(-0.00318056 0.00154648 0)
(-0.000313564 0.00254492 0)
(-0.00608744 -0.00151437 0)
(0.00249327 -0.0086985 0)
(0.00661997 -0.00144499 0)
(0.00722331 0.00728714 0)
(0.0105842 0.0117445 0)
(0.00277576 0.00705754 0)
(0.00435568 0.00555164 0)
(-0.00449638 0.0140505 0)
(-0.000133164 -0.0114373 0)
(0.00718196 -0.00854026 0)
(-0.00207658 -0.0180387 0)
(0.0109117 -0.0237739 0)
(-0.00773745 -0.026317 0)
(0.00935539 -0.071541 0)
(-0.000962478 0.058289 0)
(0.00229319 0.03363 0)
(-0.00132812 0.00168388 0)
(-0.00463913 -0.00129915 0)
(0.00683283 0.00243635 0)
(-0.00037299 0.00417405 0)
(0.00631725 -0.010199 0)
(0.0125985 -0.015499 0)
(0.0120238 -0.00300049 0)
(0.00740466 0.000642536 0)
(0.0134225 0.010746 0)
(0.0123938 0.00643945 0)
(0.00688558 0.00154577 0)
(0.0187848 0.0109053 0)
(0.00904304 -0.00616537 0)
(0.0217198 -0.0139951 0)
(0.00827515 -0.0167923 0)
(-0.000440287 -0.00493375 0)
(-0.010634 -0.0192036 0)
(0.00919806 -0.0664202 0)
(0.00319841 0.0564208 0)
(0.0016301 0.035845 0)
(0.0074073 0.0240376 0)
(-9.01617e-05 0.00945682 0)
(0.000319407 -0.00358747 0)
(0.00284438 0.00501301 0)
(0.0131755 -0.0122339 0)
(0.00687126 -0.0123347 0)
(0.00548057 0.00333659 0)
(0.0153461 0.00943039 0)
(0.00422689 0.00439294 0)
(0.0192994 0.0173122 0)
(0.00589007 -0.00248953 0)
(0.017978 0.014344 0)
(0.0139297 -0.0051817 0)
(0.0162887 -0.00819323 0)
(-0.0155997 0.0086106 0)
(0.0131339 -0.0091476 0)
(-0.00767894 -0.0276098 0)
(0.00934372 -0.0733549 0)
(-0.000176077 0.0532792 0)
(0.00846242 0.0316549 0)
(0.00179867 0.00768098 0)
(0.00654099 0.00276283 0)
(0.00950858 9.71131e-07 0)
(0.000500647 -0.0104455 0)
(0.018019 -0.0128915 0)
(0.00258127 -0.0113451 0)
(0.017643 -0.00802325 0)
(0.0186813 -0.00114747 0)
(0.0234451 0.00764705 0)
(0.0113531 0.00598637 0)
(0.0246505 -0.00071859 0)
(0.00572536 0.00361432 0)
(0.0238645 -0.00930541 0)
(0.0135187 0.00976935 0)
(0.0062489 -0.0118259 0)
(0.0259609 -0.0174928 0)
(-0.00364956 -0.021981 0)
(0.0089785 -0.0623748 0)
(0.00794962 0.0477079 0)
(0.0103823 0.0323525 0)
(0.0222787 0.0219844 0)
(0.0139295 0.00569025 0)
(0.0193154 -8.41031e-05 0)
(0.0187746 -0.00288734 0)
(0.0178025 -0.0153652 0)
(0.0167129 -0.0169629 0)
(0.0184059 -0.0110747 0)
(0.0132498 0.00244215 0)
(0.0209081 0.0111012 0)
(0.0249065 0.0173406 0)
(0.0129083 0.00369265 0)
(0.0277057 0.0132352 0)
(0.015341 -0.00701788 0)
(0.0210291 0.00992405 0)
(0.0184955 -0.0031161 0)
(0.00733608 0.00699327 0)
(0.00137583 0.000510632 0)
(0.015785 -0.0649162 0)
(0.00237626 0.0363382 0)
(0.0231888 0.0206183 0)
(0.0217869 0.0114902 0)
(0.0366426 0.0034798 0)
(0.0214723 -0.00183534 0)
(0.0265434 -0.00680819 0)
(0.00871695 -0.0076822 0)
(-0.00572529 -0.00754995 0)
(-0.0255238 -0.00793548 0)
(-0.0189566 -0.00561192 0)
(-0.0292825 0.000381013 0)
(-0.00245204 0.00806002 0)
(-0.0137684 -0.00475258 0)
(0.00199884 0.00688553 0)
(-0.00145933 -0.00601953 0)
(-0.0118504 0.00874191 0)
(0.0155258 -0.0064114 0)
(-0.0152936 -0.0028219 0)
(0.0271996 -0.0403046 0)
(0.0133616 -0.060946 0)
(0.0173799 0.0215321 0)
(0.0328208 0.0142766 0)
(0.0503983 0.0108811 0)
(0.054611 0.00794325 0)
(0.0639468 0.00761621 0)
(0.0617123 0.0081786 0)
(0.067153 0.0104624 0)
(0.0626392 0.0111093 0)
(0.0690561 0.0102956 0)
(0.0648717 0.00495913 0)
(0.0721825 0.0026979 0)
(0.0645768 -0.0023818 0)
(0.0733918 0.00210281 0)
(0.0684861 -0.00218817 0)
(0.0726137 0.00316481 0)
(0.0717089 -0.00146156 0)
(0.0703423 0.000929704 0)
(0.0711759 -0.0013594 0)
(0.0575976 -0.00628089 0)
(0.033598 -0.0059831 0)
)
;

boundaryField
{
    movingWall
    {
        type            fixedValue;
        value           uniform (1 0 0);
    }
    fixedWalls
    {
        type            noSlip;
    }
    frontAndBack
    {
        type            empty;
    }
}


// ************************************************************************* //
