/*--------------------------------*- C++ -*----------------------------------*\
| =========                 |                                                 |
| \\      /  F ield         | OpenFOAM: The Open Source CFD Toolbox           |
|  \\    /   O peration     | Version:  5.x                                   |
|   \\  /    A nd           | Web:      www.OpenFOAM.org                      |
|    \\/     M anipulation  |                                                 |
\*---------------------------------------------------------------------------*/
FoamFile
{
    version     2.0;
    format      ascii;
    class       volScalarField;
    location    "18.6";
    object      p;
}
// * * * * * * * * * * * * * * * * * * * * * * * * * * * * * * * * * * * * * //

dimensions      [0 2 -2 0 0 0 0];

internalField   nonuniform List<scalar> 
400
(
-6.01353e-10
-0.000806833
-0.00139254
-0.00175359
-0.00193099
-0.00202163
-0.00206756
-0.00209307
-0.00210597
-0.00210119
-0.00209296
-0.00210637
-0.00212348
-0.00213124
-0.00208358
-0.00196111
-0.00174798
-0.00140254
-0.000826838
0.000392826
-0.000868462
-0.00143159
-0.00176415
-0.00195002
-0.00201588
-0.00205897
-0.0020747
-0.00210061
-0.0021104
-0.00212191
-0.00211278
-0.00211361
-0.00212744
-0.00214686
-0.00215753
-0.00211325
-0.00202645
-0.00187791
-0.00163478
-0.000669051
-0.00144178
-0.00180454
-0.00195752
-0.0020389
-0.0020674
-0.00208048
-0.00209324
-0.00210791
-0.00211525
-0.00211585
-0.00211034
-0.00211422
-0.00213082
-0.00214181
-0.00214765
-0.00206833
-0.00207918
-0.00192129
-0.00182517
-0.00136783
-0.00176091
-0.0019994
-0.00204778
-0.00208753
-0.00208701
-0.00209493
-0.00209997
-0.00211508
-0.0021238
-0.00212604
-0.0021243
-0.00212506
-0.00213273
-0.00212967
-0.0021828
-0.00216343
-0.00217458
-0.00200187
-0.00202469
-0.00178766
-0.00194864
-0.00207766
-0.00208818
-0.0020965
-0.00210023
-0.00210162
-0.00210703
-0.00211592
-0.00212438
-0.00212506
-0.0021249
-0.00212421
-0.00214269
-0.00214758
-0.00222522
-0.00219148
-0.00219851
-0.00205258
-0.00208384
-0.0019587
-0.0020302
-0.00209281
-0.00208726
-0.00210375
-0.00209861
-0.00210774
-0.00210959
-0.00211962
-0.00212685
-0.00212894
-0.00213948
-0.002144
-0.00215268
-0.00211701
-0.00216437
-0.00214756
-0.0021948
-0.00206932
-0.00215475
-0.00203901
-0.00207301
-0.0021165
-0.00211575
-0.00211648
-0.00211596
-0.00211469
-0.00212201
-0.0021225
-0.00213712
-0.00213082
-0.00215208
-0.00212253
-0.00216643
-0.00206965
-0.0021267
-0.00213775
-0.00215727
-0.00208107
-0.00211749
-0.00202238
-0.00210488
-0.00212637
-0.00211881
-0.00211933
-0.00211155
-0.00211312
-0.00211216
-0.00212445
-0.00213272
-0.00214356
-0.00216185
-0.00214423
-0.00214973
-0.00215126
-0.00212734
-0.00214462
-0.00209461
-0.00207827
-0.00212672
-0.00207144
-0.00211798
-0.00214006
-0.00212698
-0.00212988
-0.00212565
-0.00211683
-0.00212635
-0.00212231
-0.00215364
-0.00217747
-0.00217023
-0.00215303
-0.00218719
-0.00218267
-0.00218187
-0.00220501
-0.00220397
-0.00212497
-0.00216072
-0.00213801
-0.00213085
-0.00214077
-0.00213396
-0.00213184
-0.00211857
-0.00211426
-0.00211766
-0.00212517
-0.00213622
-0.00215536
-0.00212844
-0.0021786
-0.00212953
-0.00223172
-0.00225615
-0.00220378
-0.00226816
-0.00219129
-0.00219304
-0.00217713
-0.00212442
-0.00214143
-0.00213469
-0.00213866
-0.00212972
-0.00211719
-0.00211904
-0.00212217
-0.00213665
-0.0021674
-0.00217044
-0.00222952
-0.0022187
-0.00234595
-0.00226701
-0.00217371
-0.00223502
-0.00220329
-0.00217374
-0.00211357
-0.002132
-0.00214327
-0.00211238
-0.00212505
-0.00211832
-0.00210564
-0.00212804
-0.00214473
-0.00211174
-0.00215722
-0.00218249
-0.00221058
-0.00222253
-0.0022793
-0.00216952
-0.00214714
-0.00214077
-0.00212522
-0.00215191
-0.00207372
-0.00212959
-0.00215093
-0.00213241
-0.00214547
-0.00213834
-0.00212244
-0.00214198
-0.00212642
-0.00212046
-0.00215461
-0.00217418
-0.00221903
-0.00219563
-0.00224452
-0.00229386
-0.00216043
-0.00219588
-0.00205959
-0.00215338
-0.00209191
-0.00211994
-0.00214925
-0.00214826
-0.00212396
-0.00209414
-0.0021402
-0.00209092
-0.00206017
-0.00207671
-0.0021155
-0.00216849
-0.00219551
-0.00223242
-0.00224211
-0.00235427
-0.00210723
-0.00213159
-0.00198289
-0.00211434
-0.00199266
-0.00207958
-0.00213759
-0.00214414
-0.00215724
-0.00212676
-0.00212747
-0.00209802
-0.00206738
-0.00209303
-0.00211256
-0.00215885
-0.00220554
-0.00222219
-0.00227291
-0.00233176
-0.00219301
-0.00217247
-0.00188958
-0.00215276
-0.00185437
-0.00197442
-0.00206492
-0.00214207
-0.00206623
-0.00206608
-0.00208262
-0.00209137
-0.00208438
-0.00211631
-0.00211348
-0.00216033
-0.00213677
-0.00215039
-0.00212104
-0.00204498
-0.00187873
-0.0021713
-0.00186276
-0.00182846
-0.00179791
-0.00177965
-0.00192302
-0.0020241
-0.00205449
-0.00202752
-0.00207425
-0.00201891
-0.00204544
-0.00217664
-0.0021969
-0.00220388
-0.0021805
-0.00214685
-0.00210432
-0.00201561
-0.00205219
-0.00208595
-0.00204527
-0.0021092
-0.0018023
-0.00146375
-0.0017574
-0.00190301
-0.00197489
-0.00198584
-0.00200415
-0.00200178
-0.00208203
-0.00218852
-0.00230914
-0.00231694
-0.00208892
-0.00212317
-0.00210768
-0.0020067
-0.00208396
-0.00194172
-0.00179787
-0.00161949
-0.0014474
-0.00105026
-0.00142464
-0.00170899
-0.00183032
-0.00185311
-0.00183375
-0.00181193
-0.00200308
-0.00243452
-0.00260485
-0.00239421
-0.00207034
-0.00215681
-0.0020265
-0.00203314
-0.00202444
-0.00193979
-0.00195262
-0.00185944
-0.00100038
-0.000604102
-0.00111386
-0.00150164
-0.0017764
-0.00187808
-0.00193473
-0.00196346
-0.00202665
-0.00215436
-0.00221836
-0.00217825
-0.00211442
-0.00206896
-0.00199932
-0.00198497
-0.0018571
-0.0018833
-0.00149533
-0.000726946
0.00114008
)
;

boundaryField
{
    movingWall
    {
        type            zeroGradient;
    }
    fixedWalls
    {
        type            zeroGradient;
    }
    frontAndBack
    {
        type            empty;
    }
}


// ************************************************************************* //
