/*--------------------------------*- C++ -*----------------------------------*\
| =========                 |                                                 |
| \\      /  F ield         | OpenFOAM: The Open Source CFD Toolbox           |
|  \\    /   O peration     | Version:  5.x                                   |
|   \\  /    A nd           | Web:      www.OpenFOAM.org                      |
|    \\/     M anipulation  |                                                 |
\*---------------------------------------------------------------------------*/
FoamFile
{
    version     2.0;
    format      ascii;
    class       volScalarField;
    location    "2.3";
    object      p;
}
// * * * * * * * * * * * * * * * * * * * * * * * * * * * * * * * * * * * * * //

dimensions      [0 2 -2 0 0 0 0];

internalField   nonuniform List<scalar> 
400
(
-5.98925e-11
2.41405e-07
7.64522e-07
1.57798e-06
2.70383e-06
4.16817e-06
5.99872e-06
8.22132e-06
1.08555e-05
1.39093e-05
1.73725e-05
2.12097e-05
2.53526e-05
2.96945e-05
3.40801e-05
3.8309e-05
4.21432e-05
4.53249e-05
4.76083e-05
4.87735e-05
-2.78474e-07
-4.47984e-08
4.63976e-07
1.2575e-06
2.35971e-06
3.79927e-06
5.60723e-06
7.81356e-06
1.04428e-05
1.35085e-05
1.70068e-05
2.09086e-05
2.51503e-05
2.96344e-05
3.4202e-05
3.86426e-05
4.27019e-05
4.60983e-05
4.85551e-05
4.9816e-05
-8.6451e-07
-6.46893e-07
-1.67516e-07
5.85224e-07
1.63902e-06
3.02773e-06
4.78912e-06
6.96151e-06
9.57951e-06
1.26686e-05
1.62378e-05
2.02715e-05
2.47193e-05
2.9492e-05
3.44323e-05
3.93174e-05
4.386e-05
4.77248e-05
5.05649e-05
5.2042e-05
-1.73929e-06
-1.54713e-06
-1.11459e-06
-4.27319e-07
5.47983e-07
1.85277e-06
3.53466e-06
5.64437e-06
8.23176e-06
1.13404e-05
1.5e-05
1.92172e-05
2.39636e-05
2.91709e-05
3.46882e-05
4.02793e-05
4.56093e-05
5.02561e-05
5.37537e-05
5.56169e-05
-2.88177e-06
-2.72657e-06
-2.36233e-06
-1.77142e-06
-9.13093e-07
2.63945e-07
1.82001e-06
3.82204e-06
6.34028e-06
9.44331e-06
1.31908e-05
1.76225e-05
2.27439e-05
2.85229e-05
3.48313e-05
4.14299e-05
4.79307e-05
5.37865e-05
5.83405e-05
6.0868e-05
-4.26086e-06
-4.15676e-06
-3.88741e-06
-3.43149e-06
-2.7391e-06
-1.74735e-06
-3.80851e-07
1.44681e-06
3.8308e-06
6.87161e-06
1.06687e-05
1.53103e-05
2.08558e-05
2.73144e-05
3.46298e-05
4.25816e-05
5.07425e-05
5.84118e-05
6.46311e-05
6.83224e-05
-5.83271e-06
-5.79732e-06
-5.6558e-06
-5.38284e-06
-4.91778e-06
-4.18504e-06
-3.09286e-06
-1.53339e-06
6.17031e-07
3.49647e-06
7.2537e-06
1.20404e-05
1.79999e-05
2.5195e-05
3.37137e-05
4.33965e-05
5.38296e-05
6.41817e-05
7.30226e-05
7.884e-05
-7.53734e-06
-7.5929e-06
-7.61983e-06
-7.58854e-06
-7.42594e-06
-7.04358e-06
-6.33362e-06
-5.16688e-06
-3.39031e-06
-8.24778e-07
2.73551e-06
7.51971e-06
1.37682e-05
2.16842e-05
3.15204e-05
4.32878e-05
5.67117e-05
7.09565e-05
8.39452e-05
9.38261e-05
-9.29422e-06
-9.46979e-06
-9.715e-06
-9.99619e-06
-1.02253e-05
-1.03024e-05
-1.01059e-05
-9.48857e-06
-8.27082e-06
-6.23437e-06
-3.11554e-06
1.39945e-06
7.66847e-06
1.60698e-05
2.71905e-05
4.12623e-05
5.84099e-05
7.80978e-05
9.76281e-05
0.000115557
-1.09974e-05
-1.13328e-05
-1.1857e-05
-1.25354e-05
-1.32588e-05
-1.39197e-05
-1.43885e-05
-1.45068e-05
-1.40761e-05
-1.28473e-05
-1.05049e-05
-6.64543e-06
-7.4588e-07
7.89135e-06
1.97566e-05
3.58161e-05
5.70833e-05
8.38556e-05
0.000113235
0.000147486
-1.24993e-05
-1.30656e-05
-1.39393e-05
-1.512e-05
-1.64491e-05
-1.78275e-05
-1.91268e-05
-2.01888e-05
-2.08097e-05
-2.07278e-05
-1.96035e-05
-1.69874e-05
-1.22731e-05
-4.6326e-06
6.9932e-06
2.38979e-05
4.90347e-05
8.40049e-05
0.000126822
0.000193577
-1.36479e-05
-1.4511e-05
-1.58212e-05
-1.76293e-05
-1.96857e-05
-2.19199e-05
-2.42201e-05
-2.64431e-05
-2.83957e-05
-2.98271e-05
-3.0407e-05
-2.96843e-05
-2.70207e-05
-2.14817e-05
-1.16208e-05
4.83593e-06
3.08996e-05
7.17333e-05
0.00012423
0.000246891
-1.4058e-05
-1.57453e-05
-1.73755e-05
-2.01619e-05
-2.29237e-05
-2.61131e-05
-2.95442e-05
-3.31249e-05
-3.66784e-05
-3.99955e-05
-4.28232e-05
-4.48318e-05
-4.55262e-05
-4.41602e-05
-3.95033e-05
-2.98369e-05
-1.18334e-05
2.65069e-05
4.82665e-05
0.000250682
-1.37727e-05
-1.51863e-05
-1.79746e-05
-2.10037e-05
-2.51021e-05
-2.9613e-05
-3.4624e-05
-3.98926e-05
-4.53194e-05
-5.08019e-05
-5.62135e-05
-6.1408e-05
-6.61575e-05
-7.01839e-05
-7.30016e-05
-7.46324e-05
-7.90611e-05
-4.95346e-05
-0.000159513
0.00010719
-1.11183e-05
-1.75964e-05
-1.9639e-05
-2.72338e-05
-3.05229e-05
-3.61653e-05
-4.15659e-05
-4.77551e-05
-5.46939e-05
-6.24263e-05
-7.08156e-05
-7.99864e-05
-8.99532e-05
-0.000101599
-0.000115325
-0.000130515
-0.000175413
-0.00013937
-0.000388217
-9.16909e-05
-9.44896e-06
-1.31758e-05
-1.72558e-05
-2.02697e-05
-2.65005e-05
-3.28234e-05
-4.11676e-05
-5.03409e-05
-6.04331e-05
-7.1299e-05
-8.28598e-05
-9.55248e-05
-0.000109874
-0.000126958
-0.000150241
-0.000168814
-0.00023355
-0.000207823
-0.000376008
-0.000210203
9.05836e-06
-1.39897e-05
-2.1106e-05
-3.58678e-05
-3.88644e-05
-4.86935e-05
-5.4946e-05
-6.41271e-05
-7.41088e-05
-8.64921e-05
-9.90243e-05
-0.000115746
-0.000132273
-0.000154716
-0.000195157
-0.000214407
-0.00030171
-0.000376156
-0.000474098
-0.000312192
4.97386e-06
-2.42419e-05
-1.94092e-05
-1.94207e-05
-2.2158e-05
-2.97014e-05
-4.09897e-05
-5.41212e-05
-6.87888e-05
-8.52668e-05
-0.000102105
-0.00012084
-0.000143757
-0.000163852
-0.000208938
-0.000244505
-0.000327429
-0.000508455
-0.000645839
-0.000271725
4.95799e-05
-1.97178e-05
-2.6954e-05
-4.37792e-05
-4.0884e-05
-5.72791e-05
-6.20769e-05
-7.89731e-05
-8.64083e-05
-0.0001132
-0.000116907
-0.000146927
-0.000165721
-0.00017018
-0.000255012
-0.000252243
-0.000332954
-0.000539544
-0.00050812
0.000255152
-7.87841e-05
2.99365e-06
1.78237e-05
2.81611e-06
-1.65037e-05
-2.54796e-05
-4.27711e-05
-5.99418e-05
-7.35111e-05
-9.8685e-05
-0.000113118
-0.00013065
-0.000156089
-0.000169123
-0.000192418
-0.000223885
-0.000186059
-5.18074e-05
0.00036731
0.00172129
)
;

boundaryField
{
    movingWall
    {
        type            zeroGradient;
    }
    fixedWalls
    {
        type            zeroGradient;
    }
    frontAndBack
    {
        type            empty;
    }
}


// ************************************************************************* //
