/*--------------------------------*- C++ -*----------------------------------*\
| =========                 |                                                 |
| \\      /  F ield         | OpenFOAM: The Open Source CFD Toolbox           |
|  \\    /   O peration     | Version:  5.x                                   |
|   \\  /    A nd           | Web:      www.OpenFOAM.org                      |
|    \\/     M anipulation  |                                                 |
\*---------------------------------------------------------------------------*/
FoamFile
{
    version     2.0;
    format      ascii;
    class       volScalarField;
    location    "3.5";
    object      p;
}
// * * * * * * * * * * * * * * * * * * * * * * * * * * * * * * * * * * * * * //

dimensions      [0 2 -2 0 0 0 0];

internalField   nonuniform List<scalar> 
400
(
-1.90544e-11
6.50297e-07
2.04042e-06
4.2099e-06
7.259e-06
1.13217e-05
1.65779e-05
2.32607e-05
3.16655e-05
4.21597e-05
5.51891e-05
7.12751e-05
9.09897e-05
0.000114903
0.000143447
0.00017667
0.000213934
0.000252721
0.000287713
0.000311689
-7.97617e-07
-1.817e-07
1.1413e-06
3.20704e-06
6.11153e-06
9.98291e-06
1.49941e-05
2.13706e-05
2.94013e-05
3.94508e-05
5.1973e-05
6.75195e-05
8.67333e-05
0.000110315
0.000138922
0.000172934
0.000212308
0.000255118
0.000295996
0.000327777
-2.43448e-06
-1.88301e-06
-6.9109e-07
1.17133e-06
3.79196e-06
7.28696e-06
1.18141e-05
1.75812e-05
2.48601e-05
3.40046e-05
4.54741e-05
5.98621e-05
7.79267e-05
0.000100609
0.000129001
0.000164181
0.000207252
0.000257934
0.000311333
0.000363269
-4.82883e-06
-4.37075e-06
-3.36986e-06
-1.80407e-06
4.02114e-07
3.34638e-06
7.16213e-06
1.20272e-05
1.81798e-05
2.59417e-05
3.5752e-05
4.82174e-05
6.41874e-05
8.48587e-05
0.000111903
0.000147648
0.000194028
0.000255181
0.000328611
0.000423283
-7.88063e-06
-7.54197e-06
-6.78511e-06
-5.59779e-06
-3.92034e-06
-1.68001e-06
1.22215e-06
4.91851e-06
9.58999e-06
1.54904e-05
2.29862e-05
3.26203e-05
4.5217e-05
6.20558e-05
8.51388e-05
0.000117554
0.000163533
0.000233797
0.000330412
0.000504072
-1.14577e-05
-1.1261e-05
-1.07927e-05
-1.0051e-05
-8.99453e-06
-7.58107e-06
-5.75603e-06
-3.44892e-06
-5.62443e-07
3.04579e-06
7.59509e-06
1.34381e-05
2.11659e-05
3.18002e-05
4.71432e-05
7.0765e-05
0.000111707
0.000173142
0.000257632
0.000548505
-1.54025e-05
-1.53678e-05
-1.52229e-05
-1.49769e-05
-1.46059e-05
-1.41018e-05
-1.34621e-05
-1.26925e-05
-1.18035e-05
-1.08059e-05
-9.70151e-06
-8.46603e-06
-7.01513e-06
-5.13357e-06
-2.46724e-06
1.0871e-06
1.00316e-05
3.58198e-05
-5.58438e-05
0.000316865
-1.95362e-05
-1.9683e-05
-1.98882e-05
-2.017e-05
-2.05174e-05
-2.09558e-05
-2.15387e-05
-2.23557e-05
-2.35394e-05
-2.52781e-05
-2.78397e-05
-3.16167e-05
-3.72171e-05
-4.56492e-05
-5.88042e-05
-8.25792e-05
-0.00013396
-0.000130965
-0.000542727
-0.000146068
-2.36572e-05
-2.4023e-05
-2.4597e-05
-2.54319e-05
-2.64952e-05
-2.78545e-05
-2.96139e-05
-3.19494e-05
-3.51162e-05
-3.94808e-05
-4.55806e-05
-5.42302e-05
-6.67019e-05
-8.51468e-05
-0.000112852
-0.000149258
-0.000257434
-0.000237081
-0.000581416
-0.000431273
-2.75497e-05
-2.8181e-05
-2.91355e-05
-3.05319e-05
-3.22837e-05
-3.44883e-05
-3.73002e-05
-4.09644e-05
-4.58384e-05
-5.24185e-05
-6.14235e-05
-7.39405e-05
-9.16032e-05
-0.000116603
-0.000157544
-0.00018957
-0.000319797
-0.000332085
-0.000464344
-0.000478553
-3.09276e-05
-3.21164e-05
-3.33777e-05
-3.5596e-05
-3.78886e-05
-4.08373e-05
-4.44341e-05
-4.9111e-05
-5.52808e-05
-6.35392e-05
-7.46887e-05
-8.99176e-05
-0.000111653
-0.000136002
-0.000193526
-0.00021681
-0.000361998
-0.000407453
-0.000561692
-0.000569796
-3.35566e-05
-3.53206e-05
-3.69221e-05
-3.95215e-05
-4.23977e-05
-4.58833e-05
-5.02217e-05
-5.56686e-05
-6.2685e-05
-7.18683e-05
-8.40841e-05
-9.94882e-05
-0.00012553
-0.000142068
-0.000210896
-0.000225766
-0.000368917
-0.000404698
-0.000571482
-0.000559907
-3.47903e-05
-3.83579e-05
-4.01938e-05
-4.5701e-05
-4.80499e-05
-5.27694e-05
-5.66628e-05
-6.22876e-05
-6.91576e-05
-7.84305e-05
-9.11762e-05
-0.000103042
-0.000135119
-0.000142824
-0.000208241
-0.000230698
-0.000329393
-0.000377797
-0.000444971
-0.000427782
-3.54219e-05
-4.14875e-05
-4.28011e-05
-4.6612e-05
-4.99062e-05
-5.32903e-05
-5.78637e-05
-6.33028e-05
-7.04814e-05
-7.91354e-05
-9.30192e-05
-0.00010117
-0.000130429
-0.000141588
-0.000187933
-0.000208213
-0.000282115
-0.000310466
-0.000386635
-0.000342662
-2.84001e-05
-3.70933e-05
-4.54401e-05
-5.37724e-05
-5.7292e-05
-6.34885e-05
-6.53217e-05
-7.11411e-05
-7.55328e-05
-8.26653e-05
-9.49793e-05
-0.000103025
-0.000124225
-0.000134112
-0.00016835
-0.000185028
-0.000234688
-0.000255201
-0.000342389
-0.000246799
-2.87134e-05
-5.86832e-05
-5.15543e-05
-5.61292e-05
-5.69921e-05
-5.78725e-05
-6.04033e-05
-6.43416e-05
-6.96806e-05
-7.67537e-05
-8.69279e-05
-9.59526e-05
-0.000111033
-0.000119808
-0.000141853
-0.000140158
-0.000174267
-0.000144322
-0.000202873
-7.92315e-05
-3.85147e-06
-3.32622e-05
-5.0306e-05
-6.9663e-05
-6.9959e-05
-7.38517e-05
-7.19729e-05
-7.60736e-05
-7.58147e-05
-8.30028e-05
-8.9426e-05
-9.45696e-05
-0.000106142
-0.000111458
-0.000124014
-0.000126855
-0.000148222
-9.61697e-05
-0.000113255
7.74318e-05
-2.5689e-05
-0.000140346
-9.10185e-05
-7.21388e-05
-6.3928e-05
-5.87603e-05
-5.53086e-05
-5.89133e-05
-6.05532e-05
-6.70705e-05
-7.43687e-05
-8.1512e-05
-8.89042e-05
-9.44956e-05
-9.93741e-05
-8.523e-05
-5.09926e-05
-5.63582e-05
2.6195e-05
0.000267889
1.76826e-05
-0.00010027
-8.34908e-05
-7.17804e-05
-6.24676e-05
-6.30049e-05
-6.44619e-05
-7.985e-05
-6.53753e-05
-7.97634e-05
-8.83402e-05
-8.93685e-05
-9.37601e-05
-0.000106182
-0.000107351
-0.000128938
-0.000133059
-4.19222e-05
-7.85575e-05
0.00056572
-0.000122732
-6.7221e-05
-2.96912e-05
-5.39259e-05
-4.33396e-05
-3.3192e-05
-4.11109e-05
-5.68083e-05
-3.96786e-05
-5.80812e-05
-7.55607e-05
-6.21692e-05
-7.56598e-05
-8.40593e-05
-6.51883e-05
-5.90484e-05
-3.74786e-05
0.000257751
0.00069746
0.00200232
)
;

boundaryField
{
    movingWall
    {
        type            zeroGradient;
    }
    fixedWalls
    {
        type            zeroGradient;
    }
    frontAndBack
    {
        type            empty;
    }
}


// ************************************************************************* //
