/*--------------------------------*- C++ -*----------------------------------*\
| =========                 |                                                 |
| \\      /  F ield         | OpenFOAM: The Open Source CFD Toolbox           |
|  \\    /   O peration     | Version:  5.x                                   |
|   \\  /    A nd           | Web:      www.OpenFOAM.org                      |
|    \\/     M anipulation  |                                                 |
\*---------------------------------------------------------------------------*/
FoamFile
{
    version     2.0;
    format      ascii;
    class       volVectorField;
    location    "3.5";
    object      U;
}
// * * * * * * * * * * * * * * * * * * * * * * * * * * * * * * * * * * * * * //

dimensions      [0 1 -1 0 0 0 0];

internalField   nonuniform List<vector> 
400
(
(-0.000130831 0.000131114 0)
(-0.000402934 0.00013804 0)
(-0.00068618 0.000140755 0)
(-0.000974321 0.000144728 0)
(-0.00127168 0.000149752 0)
(-0.00157988 0.000155562 0)
(-0.00190015 0.000161746 0)
(-0.00223267 0.000167672 0)
(-0.00257601 0.000172361 0)
(-0.00292632 0.000174323 0)
(-0.00327614 0.000171332 0)
(-0.00361269 0.000160147 0)
(-0.00391572 0.000136261 0)
(-0.00415483 9.36997e-05 0)
(-0.00428681 2.50906e-05 0)
(-0.00424889 -7.75222e-05 0)
(-0.00395903 -0.000222038 0)
(-0.00332969 -0.000407366 0)
(-0.00229716 -0.00060923 0)
(-0.000837745 -0.00078359 0)
(-0.000135898 0.000401036 0)
(-0.000418543 0.000422083 0)
(-0.000712581 0.000430115 0)
(-0.00101134 0.000441889 0)
(-0.00131926 0.000456809 0)
(-0.00163802 0.000474125 0)
(-0.00196903 0.000492657 0)
(-0.00231281 0.000510566 0)
(-0.00266854 0.000525008 0)
(-0.00303334 0.000531639 0)
(-0.00340116 0.000523949 0)
(-0.00376109 0.000492416 0)
(-0.0040952 0.000423596 0)
(-0.0043755 0.000299368 0)
(-0.00456034 9.6788e-05 0)
(-0.00458717 -0.000209658 0)
(-0.00436495 -0.000648592 0)
(-0.00377584 -0.00122664 0)
(-0.00272725 -0.00188255 0)
(-0.00104352 -0.00252079 0)
(-0.000133305 0.000674729 0)
(-0.000411127 0.000710317 0)
(-0.000700734 0.00072381 0)
(-0.000995434 0.000743624 0)
(-0.00130009 0.000768855 0)
(-0.00161676 0.000798403 0)
(-0.00194758 0.00083054 0)
(-0.00229413 0.000862567 0)
(-0.00265724 0.000890256 0)
(-0.00303641 0.000907064 0)
(-0.003429 0.000903025 0)
(-0.00382876 0.000863239 0)
(-0.00422361 0.000765981 0)
(-0.00459223 0.00058067 0)
(-0.00489842 0.000266423 0)
(-0.00508489 -0.000226915 0)
(-0.00505095 -0.000963965 0)
(-0.0046257 -0.00198877 0)
(-0.00367953 -0.00324919 0)
(-0.00155945 -0.00477615 0)
(-0.000128957 0.000940425 0)
(-0.000398588 0.000990934 0)
(-0.000680577 0.00101037 0)
(-0.000968201 0.00103901 0)
(-0.00126686 0.00107571 0)
(-0.00157911 0.00111927 0)
(-0.00190795 0.00116777 0)
(-0.00225639 0.00121823 0)
(-0.00262743 0.00126587 0)
(-0.00302391 0.00130311 0)
(-0.0034481 0.00131807 0)
(-0.00390087 0.0012924 0)
(-0.00437997 0.0011982 0)
(-0.00487656 0.000993743 0)
(-0.00536858 0.000618031 0)
(-0.00581714 -1.57563e-05 0)
(-0.00612536 -0.001018 0)
(-0.00607393 -0.00253112 0)
(-0.00557098 -0.00463815 0)
(-0.00278633 -0.00808755 0)
(-0.000122954 0.00119624 0)
(-0.000381256 0.00126223 0)
(-0.000652637 0.00128818 0)
(-0.00093023 0.00132651 0)
(-0.00122 0.00137598 0)
(-0.00152491 0.00143551 0)
(-0.00184884 0.00150347 0)
(-0.00219627 0.00157726 0)
(-0.00257259 0.0016526 0)
(-0.00298445 0.00172234 0)
(-0.00343995 0.00177483 0)
(-0.00394889 0.00179133 0)
(-0.0045226 0.00174191 0)
(-0.0051729 0.00157895 0)
(-0.00590875 0.00122661 0)
(-0.00672211 0.000561593 0)
(-0.00756954 -0.000610998 0)
(-0.00828285 -0.00253966 0)
(-0.00905156 -0.00566316 0)
(-0.00572276 -0.0133826 0)
(-0.000115119 0.00143873 0)
(-0.000358661 0.00152094 0)
(-0.000616186 0.00155408 0)
(-0.000880483 0.00160302 0)
(-0.00115797 0.00166643 0)
(-0.00145176 0.00174364 0)
(-0.00176635 0.00183378 0)
(-0.00210743 0.0019354 0)
(-0.00248255 0.00204582 0)
(-0.00290189 0.00216009 0)
(-0.00337937 0.00226951 0)
(-0.00393415 0.00235923 0)
(-0.00459291 0.00240418 0)
(-0.00539296 0.00236202 0)
(-0.00638843 0.00216134 0)
(-0.0076605 0.00167486 0)
(-0.00924533 0.000620132 0)
(-0.0111726 -0.001389 0)
(-0.0145726 -0.00509276 0)
(-0.0107425 -0.0227264 0)
(-0.00010518 0.00166414 0)
(-0.000330175 0.00176361 0)
(-0.000570418 0.00180474 0)
(-0.000817986 0.00186514 0)
(-0.00107951 0.00194331 0)
(-0.00135773 0.0020392 0)
(-0.00165728 0.00215316 0)
(-0.00198446 0.00228557 0)
(-0.00234818 0.00243639 0)
(-0.00276107 0.00260441 0)
(-0.00324116 0.0027863 0)
(-0.00381463 0.00297514 0)
(-0.00452035 0.00315795 0)
(-0.00541679 0.0033113 0)
(-0.00659917 0.00339633 0)
(-0.00827571 0.0033565 0)
(-0.0106369 0.00300173 0)
(-0.013284 0.00133769 0)
(-0.0198653 -0.0030533 0)
(-0.00979053 -0.0411924 0)
(-9.27269e-05 0.00186801 0)
(-0.00029496 0.00198677 0)
(-0.000514499 0.00203687 0)
(-0.000742046 0.00210977 0)
(-0.000984066 0.00220282 0)
(-0.00124211 0.00231724 0)
(-0.00152023 0.0024548 0)
(-0.0018245 0.00261841 0)
(-0.00216409 0.00281145 0)
(-0.00255247 0.00303769 0)
(-0.00300928 0.00330129 0)
(-0.00356347 0.00360711 0)
(-0.00425845 0.00396137 0)
(-0.00515792 0.00437299 0)
(-0.00634856 0.00485494 0)
(-0.00803976 0.00544492 0)
(-0.0107435 0.00624309 0)
(-0.0110783 0.00386869 0)
(-0.0195871 -0.00397797 0)
(0.00419668 -0.0601565 0)
(-7.64872e-05 0.00204582 0)
(-0.000251232 0.0021858 0)
(-0.000447264 0.00224647 0)
(-0.000652189 0.00233224 0)
(-0.000872253 0.00244008 0)
(-0.00110601 0.00257142 0)
(-0.00135643 0.00273033 0)
(-0.0016282 0.00292221 0)
(-0.0019294 0.0031541 0)
(-0.00227188 0.00343444 0)
(-0.00267258 0.00377395 0)
(-0.00315558 0.00418704 0)
(-0.00375584 0.00469505 0)
(-0.00452596 0.00533465 0)
(-0.00551897 0.00617317 0)
(-0.00659289 0.00706661 0)
(-0.00967535 0.0085953 0)
(-0.00627611 0.00450149 0)
(-0.0152645 -0.00916056 0)
(0.0122356 -0.0610339 0)
(-5.63056e-05 0.0021866 0)
(-0.000197858 0.00236476 0)
(-0.000367909 0.00243433 0)
(-0.000548636 0.00254433 0)
(-0.000745031 0.00266061 0)
(-0.00095209 0.00280529 0)
(-0.00116975 0.00297763 0)
(-0.00140118 0.00319021 0)
(-0.00165247 0.00345299 0)
(-0.00193351 0.00377973 0)
(-0.00225809 0.00418862 0)
(-0.00264488 0.00470577 0)
(-0.0031156 0.00536843 0)
(-0.00368487 0.00620483 0)
(-0.00457868 0.00744369 0)
(-0.00471685 0.00828021 0)
(-0.00798445 0.00995446 0)
(-0.00363688 0.00449354 0)
(-0.0106983 -0.0162042 0)
(0.00556109 -0.0597513 0)
(-1.52761e-05 0.00229547 0)
(-0.000120556 0.00248856 0)
(-0.000267724 0.00258059 0)
(-0.000426157 0.00267927 0)
(-0.000612064 0.00281919 0)
(-0.000789656 0.00297324 0)
(-0.000972306 0.00316442 0)
(-0.00115369 0.00339332 0)
(-0.00134097 0.00367602 0)
(-0.00153783 0.00402712 0)
(-0.00174908 0.00446685 0)
(-0.00198006 0.00501533 0)
(-0.0022654 0.00573484 0)
(-0.0024404 0.00648694 0)
(-0.00333906 0.00797006 0)
(-0.00246537 0.00851222 0)
(-0.00571179 0.0100441 0)
(-0.00124856 0.00383722 0)
(-0.00650562 -0.0195906 0)
(0.00312404 -0.0666546 0)
(5.25127e-06 0.00229725 0)
(-4.75995e-05 0.00270186 0)
(-0.000176154 0.00275587 0)
(-0.000310744 0.00303943 0)
(-0.00044903 0.00310911 0)
(-0.00060577 0.00328901 0)
(-0.000748211 0.00342495 0)
(-0.000888738 0.00362951 0)
(-0.00101814 0.00389111 0)
(-0.00114227 0.0042469 0)
(-0.00126913 0.00471491 0)
(-0.00137291 0.00529845 0)
(-0.00164203 0.00620614 0)
(-0.00137683 0.00689367 0)
(-0.00238132 0.00886243 0)
(-0.000479144 0.00926978 0)
(-0.0034955 0.0105516 0)
(0.00222644 0.00380657 0)
(-0.00299535 -0.0198856 0)
(0.00751072 -0.0658868 0)
(0.000244088 0.0023882 0)
(0.000199121 0.00259972 0)
(6.51793e-05 0.0027516 0)
(-7.25274e-05 0.00273607 0)
(-0.000369062 0.00293067 0)
(-0.000478035 0.00304191 0)
(-0.000637171 0.00326797 0)
(-0.000692459 0.00350358 0)
(-0.000729202 0.00381294 0)
(-0.000721476 0.00417031 0)
(-0.000711359 0.00463221 0)
(-0.000507661 0.00508822 0)
(-0.000728233 0.00592186 0)
(0.000237608 0.00632318 0)
(-0.000854824 0.00776552 0)
(0.00177668 0.00802438 0)
(-0.00107247 0.00838871 0)
(0.00432603 0.00233875 0)
(-0.00167454 -0.0212601 0)
(0.0056208 -0.0611758 0)
(7.9964e-05 0.00168082 0)
(0.000120088 0.00291437 0)
(-1.24247e-05 0.00312232 0)
(-0.000126739 0.00384361 0)
(-0.000127267 0.00373328 0)
(-0.000261791 0.00401188 0)
(-0.000277405 0.00392409 0)
(-0.000334471 0.00408509 0)
(-0.000340263 0.00420486 0)
(-0.000308383 0.00449002 0)
(-0.000330305 0.00487545 0)
(-3.52064e-05 0.00535044 0)
(-0.000345032 0.00617867 0)
(0.000680344 0.00695176 0)
(-0.000356787 0.00834552 0)
(0.00251217 0.00956962 0)
(-0.000337208 0.0091159 0)
(0.0062332 0.00431957 0)
(-0.000706007 -0.0204806 0)
(0.0034978 -0.0620597 0)
(0.00116044 0.00244993 0)
(0.00146614 0.00311414 0)
(0.000837603 0.00289111 0)
(0.000450249 0.00247799 0)
(-0.000292162 0.00270103 0)
(-0.000335036 0.00264441 0)
(-0.000598947 0.00291819 0)
(-0.000440539 0.00307213 0)
(-0.000352933 0.00339993 0)
(-8.90405e-05 0.00367473 0)
(8.73456e-05 0.004137 0)
(0.000707858 0.00451651 0)
(0.000654244 0.0050549 0)
(0.00222831 0.00569267 0)
(0.00145936 0.00584445 0)
(0.00480131 0.00665975 0)
(0.00244884 0.00493179 0)
(0.00789294 0.000677302 0)
(-0.000867059 -0.0198739 0)
(0.00732376 -0.0608612 0)
(0.00114943 -0.00138018 0)
(0.000702692 0.00261 0)
(0.000551545 0.00392463 0)
(0.000465948 0.00550455 0)
(0.000531426 0.00493183 0)
(0.000256411 0.00509932 0)
(0.000345946 0.00448215 0)
(0.000335164 0.00455783 0)
(0.000411735 0.00433479 0)
(0.000590453 0.0045827 0)
(0.000662112 0.00463794 0)
(0.0011077 0.00505485 0)
(0.00109345 0.0054184 0)
(0.00208913 0.00614503 0)
(0.00139328 0.0068396 0)
(0.00417397 0.00875677 0)
(0.000790221 0.00767433 0)
(0.0102213 0.00713443 0)
(-0.000589949 -0.0157784 0)
(0.00914334 -0.0554392 0)
(0.0031371 0.000654711 0)
(0.00321192 0.00539941 0)
(-0.00194922 0.00341473 0)
(-0.00227042 0.00207285 0)
(-0.00331154 0.00227467 0)
(-0.00255055 0.00198375 0)
(-0.00235011 0.00214612 0)
(-0.00170868 0.00223703 0)
(-0.00118555 0.00252778 0)
(-0.000693993 0.0027024 0)
(-0.000136838 0.00311756 0)
(0.000568416 0.00338835 0)
(0.000919107 0.00376221 0)
(0.00231378 0.00449457 0)
(0.00240425 0.00383093 0)
(0.00534368 0.0051239 0)
(0.0029605 -0.000828176 0)
(0.0111262 -0.00107822 0)
(-0.00274141 -0.0183155 0)
(0.00827056 -0.0540493 0)
(-0.00167765 -0.00889096 0)
(0.00727585 0.00601472 0)
(0.0092665 0.00801215 0)
(0.00783374 0.00783826 0)
(0.00877051 0.00542285 0)
(0.00804159 0.00535115 0)
(0.00727604 0.00413069 0)
(0.00696734 0.00451975 0)
(0.00595918 0.00380898 0)
(0.00621557 0.00442696 0)
(0.00497571 0.00411176 0)
(0.00596544 0.0044759 0)
(0.00492664 0.00459921 0)
(0.00637302 0.00495109 0)
(0.00551626 0.00493418 0)
(0.00649461 0.0088241 0)
(0.00432666 0.00473723 0)
(0.00760437 0.011466 0)
(0.00111352 -0.00771474 0)
(0.0115061 -0.0510913 0)
(-0.0209634 -0.00394501 0)
(-0.011111 -0.00152185 0)
(-0.022819 0.00185523 0)
(-0.011732 0.00230445 0)
(-0.020222 0.00142814 0)
(-0.0120523 0.00284174 0)
(-0.0173179 0.00202609 0)
(-0.0126863 0.00283529 0)
(-0.013858 0.00229746 0)
(-0.012395 0.00293727 0)
(-0.0107363 0.00242135 0)
(-0.0106084 0.00267215 0)
(-0.00784994 0.00257967 0)
(-0.0075669 0.00271972 0)
(-0.00377331 0.002885 0)
(-0.00423367 0.0049113 0)
(0.00571392 -0.00440587 0)
(0.00148817 0.000650739 0)
(0.0154791 -0.0263747 0)
(0.0156022 -0.0489022 0)
(0.00230325 0.0183374 0)
(0.0144919 0.0111138 0)
(0.0110525 0.00767798 0)
(0.0218137 0.00680985 0)
(0.0218271 0.00523166 0)
(0.0274149 0.00445168 0)
(0.027921 0.00450563 0)
(0.0343049 0.0035367 0)
(0.0345966 0.0027807 0)
(0.0367769 0.00325401 0)
(0.0425377 0.00281793 0)
(0.0409677 0.00207942 0)
(0.0459885 0.00244389 0)
(0.0471586 0.00225341 0)
(0.0496975 0.00176899 0)
(0.0503178 0.00139781 0)
(0.0530889 0.00123564 0)
(0.0522552 -0.000265413 0)
(0.0447948 -0.00507932 0)
(0.0298288 -0.00800459 0)
)
;

boundaryField
{
    movingWall
    {
        type            fixedValue;
        value           uniform (1 0 0);
    }
    fixedWalls
    {
        type            noSlip;
    }
    frontAndBack
    {
        type            empty;
    }
}


// ************************************************************************* //
