/*--------------------------------*- C++ -*----------------------------------*\
| =========                 |                                                 |
| \\      /  F ield         | OpenFOAM: The Open Source CFD Toolbox           |
|  \\    /   O peration     | Version:  5.x                                   |
|   \\  /    A nd           | Web:      www.OpenFOAM.org                      |
|    \\/     M anipulation  |                                                 |
\*---------------------------------------------------------------------------*/
FoamFile
{
    version     2.0;
    format      ascii;
    class       volScalarField;
    location    "20";
    object      p;
}
// * * * * * * * * * * * * * * * * * * * * * * * * * * * * * * * * * * * * * //

dimensions      [0 2 -2 0 0 0 0];

internalField   nonuniform List<scalar> 
400
(
-2.27379e-09
-0.000796362
-0.00139249
-0.0017899
-0.0019979
-0.00211143
-0.00215076
-0.00215942
-0.00215323
-0.00215325
-0.00214297
-0.00212652
-0.00209713
-0.00206835
-0.00201404
-0.00191359
-0.00170716
-0.00137994
-0.000989606
0.0004236
-0.000891035
-0.00141319
-0.00176613
-0.00196648
-0.00208333
-0.0021323
-0.00215959
-0.00215762
-0.00216396
-0.00216878
-0.00217543
-0.00217063
-0.0021593
-0.00214333
-0.00211914
-0.00206912
-0.00198081
-0.0017657
-0.00166296
-0.000679314
-0.00142225
-0.00179354
-0.00196756
-0.00208187
-0.00213753
-0.00216971
-0.00217946
-0.0021735
-0.00216132
-0.00215444
-0.00214949
-0.00214417
-0.00212238
-0.00208158
-0.0020738
-0.00196012
-0.00200605
-0.0018683
-0.00182047
-0.00138493
-0.00177424
-0.00201323
-0.00207361
-0.00213449
-0.00215825
-0.00216771
-0.00216886
-0.00216606
-0.00216071
-0.00216561
-0.00217821
-0.00218242
-0.00217515
-0.00214944
-0.0021318
-0.00212785
-0.00214
-0.00193318
-0.00198761
-0.00176452
-0.00196416
-0.00209964
-0.00211716
-0.00215298
-0.00216647
-0.00216893
-0.00217923
-0.00217214
-0.00217195
-0.00216603
-0.00216811
-0.00215305
-0.00216167
-0.00211501
-0.00211875
-0.00213931
-0.00209181
-0.0019718
-0.00202233
-0.00190891
-0.00205826
-0.00213599
-0.00213602
-0.00215292
-0.00215861
-0.0021617
-0.00216249
-0.00216476
-0.00216367
-0.00216209
-0.00218017
-0.00217448
-0.00217242
-0.00213885
-0.00216229
-0.0021467
-0.00211799
-0.0020111
-0.00208523
-0.00202172
-0.00210076
-0.00214339
-0.00213738
-0.00214893
-0.00215567
-0.002159
-0.00216839
-0.00216858
-0.00218077
-0.00217914
-0.00219594
-0.00217719
-0.00219696
-0.00215429
-0.00219724
-0.00214734
-0.00223729
-0.00213817
-0.00210275
-0.00210582
-0.00211653
-0.00213328
-0.00214549
-0.00214785
-0.00215114
-0.0021532
-0.00215344
-0.00216023
-0.00217085
-0.00218729
-0.00218639
-0.00216738
-0.00216999
-0.00214886
-0.00224937
-0.00216533
-0.00219414
-0.00219348
-0.00220805
-0.00211006
-0.0021305
-0.00214779
-0.00213686
-0.00214929
-0.00215247
-0.00215532
-0.00216044
-0.00216754
-0.00217938
-0.00219359
-0.0021992
-0.00220106
-0.00219659
-0.00218061
-0.00222209
-0.00215677
-0.00214187
-0.00214439
-0.00215809
-0.00212039
-0.00213321
-0.00211503
-0.00213108
-0.00214844
-0.00214947
-0.0021539
-0.00214907
-0.00216723
-0.00216415
-0.00216877
-0.00216168
-0.0021694
-0.00218064
-0.00215038
-0.00223606
-0.00220733
-0.00217699
-0.00216928
-0.00219414
-0.0021856
-0.002139
-0.00217409
-0.00215137
-0.00217993
-0.00216763
-0.00216448
-0.00216103
-0.00216379
-0.00217262
-0.00218535
-0.00219873
-0.00221417
-0.00222755
-0.00226267
-0.00228753
-0.00223253
-0.00227499
-0.00222768
-0.00226592
-0.00218989
-0.00215445
-0.00214366
-0.00214685
-0.00217545
-0.00216695
-0.00214732
-0.00216218
-0.00214287
-0.0021395
-0.00214976
-0.00218343
-0.00219751
-0.00221176
-0.00224672
-0.0022669
-0.00222562
-0.00227667
-0.00222878
-0.00228922
-0.00211971
-0.00215448
-0.00219613
-0.00215927
-0.0022082
-0.00217226
-0.00218729
-0.00219941
-0.00213819
-0.00213572
-0.00216968
-0.00219018
-0.00222734
-0.00227029
-0.00223157
-0.00227843
-0.00224003
-0.00225374
-0.00214727
-0.00217274
-0.00216455
-0.00215952
-0.00220659
-0.00218509
-0.00222831
-0.00219191
-0.00225625
-0.00224813
-0.00218005
-0.0021311
-0.00213075
-0.00218042
-0.00220332
-0.00218269
-0.00225495
-0.00232493
-0.00227889
-0.00222192
-0.00219847
-0.00223943
-0.00223639
-0.00211585
-0.00220325
-0.00218119
-0.00227472
-0.00222708
-0.00230102
-0.00226506
-0.00226153
-0.00218268
-0.00225102
-0.00220119
-0.00224241
-0.00223314
-0.00229977
-0.00242987
-0.00230362
-0.00227786
-0.00220228
-0.0023492
-0.00209178
-0.00205509
-0.00216488
-0.00224573
-0.00221442
-0.00224566
-0.00227243
-0.00225202
-0.00218754
-0.00220244
-0.00220961
-0.00222463
-0.00227003
-0.00219187
-0.0022049
-0.00211673
-0.00213553
-0.00222453
-0.00208998
-0.00203841
-0.0019354
-0.00185136
-0.00204453
-0.00213238
-0.00228077
-0.00226582
-0.00226347
-0.00230077
-0.00220286
-0.00224231
-0.00227546
-0.00229319
-0.0022438
-0.00222201
-0.00220232
-0.00226959
-0.00220484
-0.00213785
-0.00215454
-0.00208083
-0.00183354
-0.00151888
-0.00181018
-0.00209324
-0.0021647
-0.00224867
-0.00226949
-0.00223061
-0.00222897
-0.00234482
-0.00250298
-0.00248495
-0.00217813
-0.00216724
-0.00224543
-0.0022079
-0.00220099
-0.00195933
-0.00199975
-0.00171041
-0.0014897
-0.000995872
-0.00142739
-0.0017795
-0.00200968
-0.00207861
-0.00202344
-0.00187848
-0.002024
-0.00249818
-0.00264617
-0.00262633
-0.00209842
-0.00215148
-0.002053
-0.0020394
-0.00222023
-0.00211143
-0.00212806
-0.0020758
-0.000787305
-0.000394617
-0.000977848
-0.001478
-0.00185169
-0.0020581
-0.00216616
-0.00216593
-0.00218455
-0.00225822
-0.00215806
-0.0019771
-0.00196897
-0.00214454
-0.00207622
-0.00212784
-0.00208731
-0.00196732
-0.00160487
-0.000646657
0.00159949
)
;

boundaryField
{
    movingWall
    {
        type            zeroGradient;
    }
    fixedWalls
    {
        type            zeroGradient;
    }
    frontAndBack
    {
        type            empty;
    }
}


// ************************************************************************* //
