/*--------------------------------*- C++ -*----------------------------------*\
| =========                 |                                                 |
| \\      /  F ield         | OpenFOAM: The Open Source CFD Toolbox           |
|  \\    /   O peration     | Version:  5.x                                   |
|   \\  /    A nd           | Web:      www.OpenFOAM.org                      |
|    \\/     M anipulation  |                                                 |
\*---------------------------------------------------------------------------*/
FoamFile
{
    version     2.0;
    format      ascii;
    class       surfaceScalarField;
    location    "20";
    object      phi;
}
// * * * * * * * * * * * * * * * * * * * * * * * * * * * * * * * * * * * * * //

dimensions      [0 3 -1 0 0 0 0];

internalField   nonuniform List<scalar> 
760
(
-1.34547e-06
1.34547e-06
-2.29387e-06
9.48403e-07
-2.72496e-06
4.31092e-07
-2.98597e-06
2.61005e-07
-3.0754e-06
8.94343e-08
-3.14236e-06
6.69599e-08
-3.13899e-06
-3.36467e-09
-3.15635e-06
1.73544e-08
-3.12309e-06
-3.32577e-08
-3.13035e-06
7.25398e-09
-3.10073e-06
-2.96137e-08
-3.10586e-06
5.12659e-09
-3.06884e-06
-3.70225e-08
-3.04681e-06
-2.20275e-08
-2.99034e-06
-5.64662e-08
-2.89787e-06
-9.24713e-08
-2.77261e-06
-1.25264e-07
-2.34946e-06
-4.23149e-07
-1.63713e-06
-7.12327e-07
-1.63713e-06
-7.96943e-07
2.14241e-06
-1.20646e-06
1.35792e-06
-1.39767e-06
6.22308e-07
-1.47232e-06
3.35655e-07
-1.5239e-06
1.41007e-07
-1.51521e-06
5.82745e-08
-1.5297e-06
1.11229e-08
-1.50518e-06
-7.16963e-09
-1.52391e-06
-1.45274e-08
-1.52748e-06
1.08248e-08
-1.53711e-06
-1.99771e-08
-1.53373e-06
1.74709e-09
-1.52343e-06
-4.73249e-08
-1.50223e-06
-4.32258e-08
-1.50641e-06
-5.22873e-08
-1.43089e-06
-1.67995e-07
-1.35003e-06
-2.06118e-07
-1.32859e-06
-4.44597e-07
-1.03277e-06
-1.00815e-06
-2.6699e-06
-4.04502e-07
2.54691e-06
-5.97338e-07
1.55076e-06
-6.49681e-07
6.7465e-07
-7.16026e-07
4.02e-07
-7.43071e-07
1.68053e-07
-7.94728e-07
1.09932e-07
-8.16322e-07
3.27171e-08
-8.34469e-07
1.09774e-08
-8.69772e-07
2.07755e-08
-8.97125e-07
3.81772e-08
-9.49344e-07
3.2242e-08
-9.28715e-07
-1.88815e-08
-9.13383e-07
-6.26567e-08
-7.93988e-07
-1.62621e-07
-7.02093e-07
-1.44183e-07
-6.13331e-07
-2.56756e-07
-2.38261e-07
-5.81188e-07
-1.35102e-07
-5.47756e-07
-3.86556e-07
-7.56691e-07
-3.05646e-06
-1.90647e-07
2.73756e-06
-2.93246e-07
1.65335e-06
-2.76954e-07
6.58358e-07
-3.01692e-07
4.26738e-07
-3.35077e-07
2.01438e-07
-3.64812e-07
1.39666e-07
-4.06551e-07
7.44565e-08
-4.22468e-07
2.68948e-08
-4.23609e-07
2.19159e-08
-4.36556e-07
5.11245e-08
-4.90042e-07
8.57278e-08
-5.03939e-07
-4.98427e-09
-4.8173e-07
-8.4866e-08
-5.09579e-07
-1.34772e-07
-4.95979e-07
-1.57783e-07
-6.09881e-07
-1.42854e-07
-6.03161e-07
-5.87908e-07
-3.18951e-07
-8.31966e-07
-1.9084e-07
-8.84803e-07
-3.24729e-06
-9.23384e-08
2.8299e-06
-9.34986e-08
1.65451e-06
-1.03077e-07
6.67937e-07
-7.80272e-08
4.01688e-07
-5.606e-08
1.7947e-07
-7.36439e-08
1.5725e-07
-1.20913e-07
1.21725e-07
-1.77894e-07
8.38764e-08
-2.60276e-07
1.04298e-07
-2.52479e-07
4.33277e-08
-1.90452e-07
2.37006e-08
-1.39293e-07
-5.61432e-08
-6.03479e-08
-1.63811e-07
-9.22015e-08
-1.02918e-07
8.97461e-08
-3.3973e-07
4.34621e-08
-9.65705e-08
-1.43639e-07
-4.00807e-07
-4.6146e-08
-9.29458e-07
-4.96347e-08
-8.81314e-07
-3.29693e-06
-3.69848e-08
2.86688e-06
-7.02399e-08
1.68777e-06
-1.02998e-09
5.98727e-07
7.63574e-08
3.24301e-07
2.53058e-08
2.30522e-07
2.61882e-09
1.79937e-07
-4.15523e-08
1.65896e-07
-1.04482e-07
1.46806e-07
-1.24091e-07
1.23907e-07
-2.07362e-07
1.26598e-07
-3.26635e-07
1.42974e-07
-3.11125e-07
-7.16526e-08
-1.96882e-07
-2.78054e-07
-2.73225e-07
-2.65757e-08
-1.00625e-08
-6.02893e-07
6.83187e-08
-1.74952e-07
-2.76797e-07
-5.5692e-08
-1.69846e-07
-1.03641e-06
-1.96447e-08
-1.03152e-06
-3.31657e-06
-1.24009e-08
2.87928e-06
1.62836e-08
1.65909e-06
3.40113e-08
5.80999e-07
4.93695e-08
3.08942e-07
4.93549e-08
2.30537e-07
7.58303e-08
1.53462e-07
1.16755e-07
1.24971e-07
1.16126e-07
1.47435e-07
1.14314e-07
1.25719e-07
6.32389e-08
1.77674e-07
-2.31557e-08
2.29368e-07
-1.11551e-07
1.67432e-08
-2.30773e-07
-1.58832e-07
-1.98948e-07
-5.84006e-08
-1.05185e-07
-6.96656e-07
-1.88373e-07
-9.17634e-08
-2.44464e-07
3.99118e-10
-1.15485e-07
-1.16539e-06
-7.68209e-08
-1.07018e-06
-3.3934e-06
-8.8109e-09
2.88809e-06
-2.97476e-08
1.68002e-06
5.72438e-09
5.45527e-07
6.41061e-08
2.50561e-07
4.81971e-08
2.46446e-07
7.4508e-09
1.94208e-07
-5.83403e-08
1.90762e-07
-1.62452e-07
2.51547e-07
-2.79942e-07
2.43209e-07
-2.85943e-07
1.83674e-07
-1.43163e-07
8.65881e-08
-1.00556e-07
-2.58638e-08
-2.17618e-07
-4.17696e-08
-2.4994e-07
-2.6079e-08
-1.80811e-07
-7.65786e-07
-1.25568e-07
-1.47005e-07
1.96605e-08
-1.4483e-07
9.21827e-09
-1.15495e-06
-6.05892e-08
-1.00037e-06
-3.45398e-06
1.8388e-08
2.8697e-06
5.77731e-08
1.64064e-06
5.55959e-08
5.47704e-07
1.67784e-08
2.89378e-07
1.70944e-08
2.4613e-07
6.97028e-08
1.416e-07
4.45601e-08
2.15905e-07
-5.79388e-09
3.01901e-07
1.33819e-07
1.03596e-07
2.77333e-07
4.01608e-08
3.01394e-07
6.25265e-08
1.47657e-07
1.27874e-07
2.96906e-08
7.61967e-08
-1.36439e-07
1.4005e-07
-3.76399e-07
-5.25825e-07
-2.33384e-07
-2.9002e-07
-4.78152e-08
-3.30399e-07
-6.44395e-08
-1.13832e-06
1.72871e-08
-1.0821e-06
-3.4367e-06
-8.85942e-09
2.87856e-06
-6.73499e-08
1.69913e-06
-4.72185e-08
5.27573e-07
-4.69084e-08
2.89068e-07
-1.55877e-08
2.14809e-07
5.58869e-08
7.01253e-08
1.06102e-07
1.6569e-07
1.25207e-07
2.82795e-07
2.51182e-07
-2.23792e-08
2.76495e-07
1.48478e-08
1.0518e-07
2.33842e-07
-1.11601e-07
3.44655e-07
-1.67915e-07
1.32511e-07
-2.41796e-07
2.13931e-07
-6.01405e-07
-1.66216e-07
-3.4486e-07
-5.46566e-07
-1.39847e-07
-5.35411e-07
-3.09207e-07
-9.68962e-07
-5.05587e-08
-1.34075e-06
-3.48726e-06
-1.43785e-08
2.89294e-06
3.73558e-08
1.64739e-06
-3.60292e-08
6.00958e-07
-5.64763e-08
3.09515e-07
-1.01539e-08
1.68487e-07
2.77993e-08
3.21721e-08
2.01059e-07
-7.56908e-09
3.33068e-07
1.50786e-07
2.833e-07
2.73889e-08
1.45574e-07
1.52574e-07
1.99663e-08
3.5945e-07
1.68639e-07
1.95982e-07
3.40807e-07
-3.96571e-08
8.99932e-08
4.64745e-07
1.46976e-08
-9.09208e-08
-2.67995e-08
-5.05069e-07
-1.09004e-07
-4.53207e-07
-1.77231e-07
-9.00735e-07
-9.2062e-08
-1.42592e-06
-3.57932e-06
2.04569e-08
2.87249e-06
-6.18436e-08
1.72969e-06
1.02503e-07
4.36611e-07
1.5826e-07
2.53758e-07
3.03861e-08
2.96361e-07
-5.01167e-08
1.12675e-07
6.54664e-08
-1.23152e-07
2.6513e-07
-4.88777e-08
2.14758e-07
7.77614e-08
1.4509e-07
2.22241e-07
1.35787e-07
3.68753e-07
1.76542e-07
1.55226e-07
2.58259e-07
-1.21374e-07
2.00158e-07
5.22847e-07
1.6268e-09
1.0761e-07
-9.27306e-08
-4.10711e-07
3.01834e-07
-8.47772e-07
2.99713e-07
-8.98614e-07
-7.39449e-09
-1.11881e-06
-3.58671e-06
-5.39905e-08
2.92648e-06
-2.23804e-08
1.69808e-06
-9.17053e-08
5.05936e-07
-1.82462e-07
3.44514e-07
-1.50596e-07
2.64495e-07
-2.73744e-07
2.35823e-07
-2.65437e-07
-1.31459e-07
1.21229e-07
-4.35543e-07
3.24883e-07
-1.25893e-07
3.23952e-07
2.23173e-07
3.42947e-07
3.49758e-07
2.57402e-07
2.40771e-07
1.72407e-07
-3.63788e-08
1.48077e-07
5.47177e-07
1.07146e-07
1.48541e-07
2.45976e-09
-3.06025e-07
1.77959e-08
-8.63108e-07
-1.44662e-08
-8.66352e-07
1.65295e-08
-1.1498e-06
-3.57018e-06
5.36779e-08
2.8728e-06
-2.33839e-09
1.7541e-06
1.18463e-09
5.02413e-07
-1.53271e-07
4.9897e-07
-8.90977e-08
2.00321e-07
-1.7699e-07
3.23715e-07
-1.17501e-07
-1.90948e-07
2.07803e-07
-7.60847e-07
3.51173e-07
-2.69263e-07
5.28765e-07
4.55801e-08
3.76276e-07
5.02247e-07
2.0634e-07
4.10707e-07
5.43842e-08
1.15577e-07
-8.70931e-08
6.88654e-07
1.5482e-07
-9.33717e-08
2.87419e-07
-4.38624e-07
2.38601e-08
-5.99549e-07
-2.85103e-07
-5.57389e-07
-7.81933e-08
-1.35671e-06
-3.64838e-06
-3.26433e-08
2.90544e-06
-8.7377e-09
1.73019e-06
-1.31508e-07
6.25183e-07
5.23709e-08
3.15092e-07
1.98535e-07
5.41573e-08
1.98099e-07
3.24151e-07
3.95255e-07
-3.88104e-07
4.88071e-07
-8.53663e-07
5.4648e-07
-3.27672e-07
5.09479e-07
8.25815e-08
6.40729e-07
3.70997e-07
3.56425e-07
6.95012e-07
5.088e-07
-3.67987e-08
6.11831e-07
5.85624e-07
6.12666e-07
-9.4207e-08
7.75887e-07
-6.01845e-07
4.28177e-07
-2.5184e-07
8.12728e-08
-2.10485e-07
3.8579e-08
-1.31402e-06
-3.6098e-06
1.50453e-07
2.75499e-06
1.99349e-07
1.6813e-06
9.42951e-08
7.30237e-07
-3.0148e-09
4.12402e-07
1.40488e-08
3.70937e-08
2.77454e-07
6.07458e-08
4.46024e-07
-5.56675e-07
3.07944e-07
-7.15583e-07
4.88126e-07
-5.07854e-07
4.3939e-07
1.31317e-07
5.6613e-07
2.44257e-07
5.49967e-07
7.11175e-07
5.48933e-07
-3.5765e-08
5.82624e-07
5.51933e-07
7.57635e-07
-2.69218e-07
1.65023e-07
-9.23222e-09
9.15891e-08
-1.78406e-07
4.38775e-07
-5.57671e-07
1.43577e-07
-1.01882e-06
-3.46622e-06
1.70833e-07
2.58415e-06
2.77233e-07
1.5749e-06
2.21015e-07
7.86455e-07
2.91049e-07
3.42368e-07
2.25006e-07
1.03136e-07
4.29683e-07
-1.43931e-07
5.5175e-07
-6.78741e-07
7.01442e-07
-8.65274e-07
8.29795e-07
-6.36208e-07
9.80422e-07
-1.93092e-08
6.72376e-07
5.52302e-07
6.95901e-07
6.8765e-07
6.68673e-07
-8.53643e-09
5.84097e-07
6.36508e-07
8.02317e-07
-4.87438e-07
4.94612e-07
2.98473e-07
6.55073e-07
-3.38867e-07
3.67584e-07
-2.70182e-07
4.84013e-08
-6.99639e-07
-3.41782e-06
4.91178e-07
2.09298e-06
8.15642e-07
1.25043e-06
9.0062e-07
7.01477e-07
8.68405e-07
3.74583e-07
9.61575e-07
9.96627e-09
1.00026e-06
-1.82621e-07
8.91734e-07
-5.70211e-07
7.85065e-07
-7.58605e-07
6.94313e-07
-5.45456e-07
8.11507e-07
-1.36503e-07
9.18746e-07
4.45063e-07
8.18662e-07
7.87734e-07
9.07829e-07
-9.77032e-08
9.8636e-07
5.57977e-07
8.50125e-07
-3.51203e-07
8.15621e-07
3.32977e-07
5.439e-07
-6.71454e-08
5.68986e-08
2.16819e-07
3.78912e-07
-1.02165e-06
-3.03891e-06
7.24195e-07
1.36878e-06
1.1723e-06
8.02333e-07
1.41765e-06
4.56122e-07
1.51997e-06
2.72261e-07
1.31693e-06
2.13009e-07
1.04476e-06
8.95463e-08
3.51819e-07
1.22734e-07
-5.62404e-07
1.55619e-07
-1.08482e-06
-2.30438e-08
-1.16663e-06
-5.46863e-08
-7.89757e-07
6.81862e-08
-2.03548e-07
2.01526e-07
-2.23983e-07
-7.72683e-08
1.52256e-07
1.81738e-07
-1.6932e-07
-2.96271e-08
7.1702e-08
9.19548e-08
4.43682e-08
-3.98116e-08
4.73677e-07
-2.1249e-07
8.97603e-07
-1.44558e-06
-2.1413e-06
1.36878e-06
2.17111e-06
2.62724e-06
2.8995e-06
3.11251e-06
3.20205e-06
3.32479e-06
3.4804e-06
3.45736e-06
3.40267e-06
3.47086e-06
3.67239e-06
3.59512e-06
3.77686e-06
3.74723e-06
3.83918e-06
3.79937e-06
3.58688e-06
2.1413e-06
)
;

boundaryField
{
    movingWall
    {
        type            calculated;
        value           uniform 0;
    }
    fixedWalls
    {
        type            calculated;
        value           uniform 0;
    }
    frontAndBack
    {
        type            empty;
        value           nonuniform 0();
    }
}


// ************************************************************************* //
