/*--------------------------------*- C++ -*----------------------------------*\
| =========                 |                                                 |
| \\      /  F ield         | OpenFOAM: The Open Source CFD Toolbox           |
|  \\    /   O peration     | Version:  5.x                                   |
|   \\  /    A nd           | Web:      www.OpenFOAM.org                      |
|    \\/     M anipulation  |                                                 |
\*---------------------------------------------------------------------------*/
FoamFile
{
    version     2.0;
    format      ascii;
    class       volVectorField;
    location    "20";
    object      U;
}
// * * * * * * * * * * * * * * * * * * * * * * * * * * * * * * * * * * * * * //

dimensions      [0 1 -1 0 0 0 0];

internalField   nonuniform List<vector> 
400
(
(-0.0176788 0.00776972 0)
(-0.041318 0.00790857 0)
(-0.0504478 0.00158902 0)
(-0.0575439 0.0024484 0)
(-0.0595405 -0.00073319 0)
(-0.0624429 0.00131208 0)
(-0.0618233 -0.000789831 0)
(-0.0632692 0.00102443 0)
(-0.0616916 -0.000608949 0)
(-0.0635515 0.000421677 0)
(-0.0613888 -0.000760746 0)
(-0.0634222 -0.000631495 0)
(-0.0605862 -0.00167506 0)
(-0.0631642 -0.00226745 0)
(-0.0597374 -0.00305771 0)
(-0.061631 -0.00439999 0)
(-0.0557567 -0.00577582 0)
(-0.0537852 -0.00963226 0)
(-0.0468454 -0.0131944 0)
(-0.00973725 -0.0259264 0)
(-0.0116981 0.0402542 0)
(-0.0234882 0.0260179 0)
(-0.0248006 0.0134895 0)
(-0.0296232 0.00688065 0)
(-0.0286372 0.00385168 0)
(-0.0311531 0.0013098 0)
(-0.0296798 0.000666157 0)
(-0.0307067 -0.00024227 0)
(-0.0292039 -0.0008365 0)
(-0.0318631 -0.000210493 0)
(-0.0293131 -0.000654966 0)
(-0.0326411 0.000731533 0)
(-0.0281538 -0.00015101 0)
(-0.0332931 0.00107929 0)
(-0.027356 0.000261392 0)
(-0.0331099 -0.000182609 0)
(-0.025788 -0.000380469 0)
(-0.0256521 -0.0096713 0)
(-0.032609 -0.0194042 0)
(-0.00251781 -0.0465419 0)
(-0.00752782 0.0482048 0)
(-0.0107919 0.0295436 0)
(-0.0118053 0.0124171 0)
(-0.0143485 0.00671119 0)
(-0.0135606 0.00189703 0)
(-0.0161504 0.000758195 0)
(-0.0155585 -0.000321745 0)
(-0.0170846 -0.000120139 0)
(-0.0158488 0.00029862 0)
(-0.0188503 0.000752572 0)
(-0.0169485 6.96336e-05 0)
(-0.0214769 -0.000594028 0)
(-0.0161097 -0.00131695 0)
(-0.0194305 -0.00232738 0)
(-0.0138079 -0.00183957 0)
(-0.0123493 -0.00519034 0)
(-0.0142379 -0.00665046 0)
(0.00585188 -0.00662118 0)
(-0.0123926 -0.0176633 0)
(-0.000551606 -0.0584441 0)
(-0.0040074 0.0546296 0)
(-0.00487667 0.0336331 0)
(-0.00583503 0.015183 0)
(-0.00568067 0.00983495 0)
(-0.00603063 0.00502218 0)
(-0.00735011 0.00394866 0)
(-0.00708878 0.00181896 0)
(-0.00930716 0.00064909 0)
(-0.00723827 0.000602344 0)
(-0.00968688 0.000618541 0)
(-0.00804267 0.000973271 0)
(-0.0118888 -0.000381554 0)
(-0.00849963 -0.00162849 0)
(-0.0102281 -0.00504358 0)
(-0.0104208 -0.00463801 0)
(-0.00916513 -0.00657101 0)
(-0.0168981 -0.0184273 0)
(-0.00484683 -0.0156029 0)
(-0.0097549 -0.0141217 0)
(0.00350113 -0.0615319 0)
(-0.00271712 0.0568464 0)
(-0.00165997 0.0340446 0)
(-0.00157543 0.0118163 0)
(-0.00283049 0.00758916 0)
(-0.000168931 0.0030502 0)
(-0.00193044 0.00155274 0)
(-0.00120525 0.000887003 0)
(-0.00339856 0.000302218 0)
(-0.00392039 0.000156391 0)
(-0.00622352 0.00139665 0)
(-0.00423487 0.00277464 0)
(-0.00297073 0.000283345 0)
(-0.00307358 -0.00137795 0)
(0.00100843 0.000305211 0)
(-0.00493381 -0.00104325 0)
(0.00813059 0.00152519 0)
(-0.00637884 -0.00335453 0)
(0.00145986 -0.0169689 0)
(-0.00385989 -0.0195259 0)
(0.00240045 -0.0648293 0)
(-0.00141307 0.0576681 0)
(-0.000404664 0.0329969 0)
(-0.00203966 0.0153315 0)
(0.00197588 0.00881283 0)
(0.00119451 0.00440141 0)
(-0.00019063 0.00492394 0)
(0.000310373 0.00432839 0)
(-0.00203481 0.00325505 0)
(-0.00206248 0.00432289 0)
(-0.0026848 0.000487052 0)
(-0.00602154 -0.00191397 0)
(-0.00663444 -0.00281008 0)
(-0.00628228 -0.00513121 0)
(-0.0010115 -0.00477626 0)
(-0.0106176 -0.0131584 0)
(0.0102748 -0.00547733 0)
(-0.00785116 -0.0127354 0)
(-0.00203051 -0.0189324 0)
(-0.00580162 -0.0170048 0)
(0.00529345 -0.06561 0)
(-0.00120602 0.0583466 0)
(0.000558803 0.0353213 0)
(0.000236249 0.00894709 0)
(0.00101429 0.00431847 0)
(0.000928522 0.00463759 0)
(0.00113948 0.00211953 0)
(0.00174569 0.00193405 0)
(0.00314119 0.00237078 0)
(0.00126472 0.000276652 0)
(0.00357509 0.00430583 0)
(-0.00130284 0.00732788 0)
(0.000562463 -2.54168e-05 0)
(-0.00549873 -0.00662004 0)
(-0.00291098 0.00362776 0)
(-0.00588278 -0.0103661 0)
(0.00237 -0.00122709 0)
(-0.0110088 0.00997105 0)
(0.00234655 -0.0242497 0)
(-0.00719261 -0.0224908 0)
(0.00386124 -0.0687271 0)
(-0.000438774 0.05756 0)
(2.4303e-05 0.0313788 0)
(-0.00127178 0.0138848 0)
(0.00153428 0.00797154 0)
(0.000997676 0.00477268 0)
(0.00090086 0.00419799 0)
(-0.000568155 0.00338932 0)
(-0.00183686 0.00380102 0)
(-0.00454088 0.00508752 0)
(-0.0070242 0.00286145 0)
(-0.00447255 0.00232267 0)
(-0.000925898 0.000832782 0)
(-0.00337995 0.000861401 0)
(-0.00453445 -0.0057117 0)
(-0.00670562 -0.0186682 0)
(0.00050978 -0.00271852 0)
(-0.00614624 -0.00987844 0)
(0.0070663 -0.0235208 0)
(-0.0068528 -0.0226405 0)
(0.00493793 -0.0668643 0)
(-0.0014096 0.0579737 0)
(0.00201881 0.0349663 0)
(0.000526186 0.0084158 0)
(0.00151743 0.00214777 0)
(-0.000799746 0.00487591 0)
(0.00151105 0.00337199 0)
(0.00127025 0.00385143 0)
(0.000553227 0.00593709 0)
(-0.000793962 0.00419297 0)
(0.00594485 0.00414776 0)
(0.00536361 0.00078784 0)
(0.00678007 -0.00210626 0)
(-0.000830807 -0.00281625 0)
(0.00221841 0.00445241 0)
(-0.00834137 -0.0108578 0)
(-0.00561804 -0.00266683 0)
(-0.00418151 0.00461508 0)
(0.00228051 -0.0206447 0)
(-0.00511115 -0.0152385 0)
(0.00598502 -0.0688374 0)
(7.14731e-05 0.0575287 0)
(-0.00032299 0.0325733 0)
(-0.00256101 0.0136639 0)
(0.000526468 0.00981605 0)
(-0.00225847 0.0053061 0)
(0.00157065 0.00248444 0)
(0.000853421 0.00520437 0)
(0.00308243 0.00625976 0)
(0.00219964 0.000257195 0)
(0.00753062 -0.00229789 0)
(0.00391405 0.00211431 0)
(0.000133408 0.00782555 0)
(-0.00490709 0.00626812 0)
(-0.0010857 0.00191971 0)
(-0.00964198 -0.00962236 0)
(-0.0132631 -0.00961609 0)
(-1.38332e-05 -0.0176333 0)
(-0.00560767 -0.0245344 0)
(-0.00739297 -0.0277323 0)
(0.00557148 -0.0704078 0)
(-0.00288173 0.0570909 0)
(0.00214544 0.0330148 0)
(-0.000367941 0.00671751 0)
(-0.00132905 0.00114128 0)
(-0.000699418 0.00288582 0)
(0.000254685 9.05116e-05 0)
(0.000917754 0.00109668 0)
(0.00701166 0.00484508 0)
(0.00644324 -0.00132516 0)
(0.00472284 0.00271504 0)
(0.00115656 0.00645827 0)
(-0.000392407 0.0049972 0)
(0.00743457 -0.00154203 0)
(0.00568039 0.00554772 0)
(-0.00241742 0.00235127 0)
(0.00322023 -0.012139 0)
(-0.00461711 -0.00513444 0)
(0.00091025 -0.0156859 0)
(-0.00886629 -0.0268805 0)
(0.00575774 -0.0709779 0)
(0.00130746 0.0582415 0)
(-0.000398913 0.0352096 0)
(-0.00193249 0.018048 0)
(0.00567861 0.0118991 0)
(0.000932685 0.00413537 0)
(0.000448019 0.00142744 0)
(-0.00270917 -0.00131031 0)
(0.00558432 0.00139777 0)
(0.00523743 0.00262322 0)
(0.00337172 0.00396914 0)
(0.00208336 0.00864049 0)
(0.00357624 0.00347196 0)
(0.00376993 0.000284629 0)
(0.00611361 0.0141349 0)
(0.00146918 -0.00555066 0)
(-0.00132724 -0.00782217 0)
(-0.00296353 -0.0127021 0)
(0.016183 -0.0204301 0)
(-0.00562458 -0.032093 0)
(0.00558876 -0.0700825 0)
(-0.00429358 0.0568603 0)
(0.00177566 0.031929 0)
(-0.00239837 -0.000894431 0)
(-0.00183125 -0.00224699 0)
(-0.00475946 0.00766139 0)
(-0.00165815 0.00283687 0)
(-0.00991019 -0.00387766 0)
(0.000125458 -0.00318981 0)
(0.0044784 0.000254478 0)
(0.00796428 0.00420033 0)
(0.0054394 0.00563709 0)
(0.00794453 0.00219864 0)
(0.00172028 -0.00585962 0)
(0.00591193 0.00752065 0)
(-0.000684962 0.0100242 0)
(0.00551373 -0.00812697 0)
(-0.00550145 -0.0204277 0)
(0.00655237 -0.0136849 0)
(-0.00729436 -0.0100363 0)
(0.00811315 -0.0717224 0)
(0.00283438 0.0586602 0)
(-0.00103355 0.0370052 0)
(0.00102327 0.0205539 0)
(-0.00104802 0.0165573 0)
(-0.00433948 0.00311665 0)
(0.000220303 0.0061297 0)
(-0.00712234 -0.00165778 0)
(0.0028589 -0.0139534 0)
(0.00560605 -0.00491342 0)
(0.00829197 0.00571724 0)
(0.01198 0.00888197 0)
(0.00267887 0.00816585 0)
(0.00632358 0.00485128 0)
(-0.0044609 0.0138094 0)
(0.000518443 -0.004134 0)
(0.00626433 -0.00465889 0)
(0.00536198 -0.0128384 0)
(-0.00429865 -0.0224277 0)
(-0.00782851 -0.0355893 0)
(0.00468698 -0.0753876 0)
(-0.00437054 0.0562026 0)
(0.00270833 0.0321998 0)
(-0.00285942 0.000497307 0)
(-0.00322645 0.00225459 0)
(0.00584029 0.00453748 0)
(0.00115107 0.00625209 0)
(0.00750349 -0.0062095 0)
(0.00749377 -0.0181967 0)
(0.013458 -0.00654873 0)
(0.00674515 -0.00445275 0)
(0.0150632 0.0108477 0)
(0.00921132 0.00749407 0)
(0.0060293 -0.00096131 0)
(0.0137083 0.0122275 0)
(0.00879208 -0.000575331 0)
(0.0178078 -0.0141632 0)
(0.011675 -0.012706 0)
(0.0069689 -0.000625994 0)
(-0.00467713 -0.0223525 0)
(0.00692316 -0.0698931 0)
(0.00489429 0.0573939 0)
(0.000479527 0.0357833 0)
(0.00690244 0.0227643 0)
(-0.0025477 0.0115499 0)
(0.00236159 -0.00224602 0)
(-0.00190814 0.00747951 0)
(0.0128598 -0.00845187 0)
(0.00603902 -0.0139481 0)
(0.00551573 -0.00604043 0)
(0.0145679 0.00844086 0)
(0.00303494 0.00453201 0)
(0.0182854 0.0196126 0)
(0.00524879 -0.000162785 0)
(0.0152484 0.0128577 0)
(0.00963654 -0.00187758 0)
(0.0207586 -0.00761857 0)
(-0.0151388 0.00319736 0)
(0.0195565 -0.00669277 0)
(-0.00318585 -0.0257111 0)
(0.00961832 -0.0725983 0)
(-0.00264214 0.0525959 0)
(0.00846448 0.03081 0)
(0.00356434 0.00835303 0)
(0.00428517 0.00335301 0)
(0.00838194 0.00358089 0)
(0.00060205 -0.00510063 0)
(0.0154047 -0.0151925 0)
(0.00837023 -0.0153281 0)
(0.0182891 -0.0135327 0)
(0.0146692 -0.0028054 0)
(0.0237116 0.00586305 0)
(0.00426325 0.0089633 0)
(0.023242 -0.00160824 0)
(0.00461944 0.00850017 0)
(0.0171255 -0.0108114 0)
(0.016428 0.00701031 0)
(0.00426536 -0.0107763 0)
(0.0203861 -0.0177158 0)
(-0.00652785 -0.0189604 0)
(0.00911125 -0.0692916 0)
(0.00877199 0.0490502 0)
(0.0091719 0.0311074 0)
(0.0215854 0.0207661 0)
(0.0164654 0.0113187 0)
(0.0170383 5.48696e-05 0)
(0.0222026 -0.00155325 0)
(0.0191873 -0.013486 0)
(0.0173137 -0.0213272 0)
(0.012938 -0.0121901 0)
(0.0131634 0.00173394 0)
(0.0178792 0.0148697 0)
(0.0221382 0.0192027 0)
(0.00881728 0.00140481 0)
(0.0255792 0.0151158 0)
(0.0154684 -0.00767977 0)
(0.0163935 0.00570045 0)
(0.0191578 -0.00106769 0)
(1.71125e-05 0.00858475 0)
(0.00293232 -0.00502877 0)
(0.0132839 -0.0699423 0)
(0.00207385 0.036883 0)
(0.0241962 0.0203642 0)
(0.0214842 0.00931392 0)
(0.0341745 0.00420729 0)
(0.0279164 0.000582515 0)
(0.0257381 -0.00421208 0)
(0.0188553 -0.00607331 0)
(-0.0044378 -0.00603153 0)
(-0.0207996 -0.011844 0)
(-0.0206367 -0.00840398 0)
(-0.0288135 0.000380371 0)
(0.00135943 0.0115439 0)
(-0.0112358 -0.00556725 0)
(0.00329854 0.00941871 0)
(0.00337358 -0.00475738 0)
(-0.0114428 0.00650217 0)
(0.0150875 -0.00254253 0)
(-0.0137351 -0.00191782 0)
(0.029383 -0.0430045 0)
(0.0132346 -0.0605928 0)
(0.0154637 0.0221527 0)
(0.0350661 0.0145932 0)
(0.0500643 0.0105582 0)
(0.0535026 0.00761502 0)
(0.0644123 0.00717113 0)
(0.0605909 0.00681816 0)
(0.0704769 0.00947441 0)
(0.0627518 0.0109885 0)
(0.0727774 0.0114553 0)
(0.0663839 0.00732015 0)
(0.073586 0.00374496 0)
(0.0662341 -0.00265251 0)
(0.07535 0.00239513 0)
(0.0733192 -0.00307052 0)
(0.0739151 0.00311554 0)
(0.077858 -0.0020902 0)
(0.0717085 0.00154879 0)
(0.0754837 -0.00434744 0)
(0.061056 -0.00518748 0)
(0.0368448 -0.0118893 0)
)
;

boundaryField
{
    movingWall
    {
        type            fixedValue;
        value           uniform (1 0 0);
    }
    fixedWalls
    {
        type            noSlip;
    }
    frontAndBack
    {
        type            empty;
    }
}


// ************************************************************************* //
