/*--------------------------------*- C++ -*----------------------------------*\
| =========                 |                                                 |
| \\      /  F ield         | OpenFOAM: The Open Source CFD Toolbox           |
|  \\    /   O peration     | Version:  5.x                                   |
|   \\  /    A nd           | Web:      www.OpenFOAM.org                      |
|    \\/     M anipulation  |                                                 |
\*---------------------------------------------------------------------------*/
FoamFile
{
    version     2.0;
    format      ascii;
    class       volScalarField;
    location    "19.6";
    object      p;
}
// * * * * * * * * * * * * * * * * * * * * * * * * * * * * * * * * * * * * * //

dimensions      [0 2 -2 0 0 0 0];

internalField   nonuniform List<scalar> 
400
(
5.53508e-10
-0.000789654
-0.00136676
-0.00173865
-0.00193345
-0.00205383
-0.00211443
-0.00214155
-0.00213864
-0.00214118
-0.00214055
-0.00213406
-0.00210146
-0.00205625
-0.00199275
-0.00189264
-0.00171618
-0.00137895
-0.000927214
0.000390268
-0.000861159
-0.00137546
-0.00173488
-0.0019207
-0.0020293
-0.00208149
-0.00211907
-0.00213023
-0.00213402
-0.00213943
-0.00215093
-0.00216079
-0.00214942
-0.00213598
-0.0021094
-0.00206578
-0.00199639
-0.00177107
-0.00162706
-0.00067121
-0.00138836
-0.00175625
-0.0019158
-0.00202322
-0.00207113
-0.00211018
-0.00213782
-0.00215102
-0.00214871
-0.00214372
-0.00214091
-0.00213793
-0.00212704
-0.00208192
-0.00206574
-0.00195375
-0.00200356
-0.00184418
-0.00177961
-0.00136911
-0.00173168
-0.00195167
-0.00201994
-0.00207444
-0.00210046
-0.00211979
-0.00213188
-0.00213843
-0.00213179
-0.0021339
-0.00214329
-0.00215584
-0.00215679
-0.00213022
-0.00213266
-0.00212124
-0.00212307
-0.00193563
-0.00197922
-0.0017519
-0.00191041
-0.00204481
-0.00206729
-0.0020961
-0.0021118
-0.0021202
-0.00213528
-0.0021385
-0.00214513
-0.00214242
-0.0021437
-0.00213293
-0.00215182
-0.00211347
-0.00211862
-0.00212563
-0.00207956
-0.00196793
-0.00198333
-0.00190383
-0.0020103
-0.00207558
-0.00208358
-0.00209939
-0.00210877
-0.00211853
-0.00212625
-0.00213489
-0.00213654
-0.002135
-0.00214877
-0.00214378
-0.00214469
-0.00210736
-0.00212385
-0.00212692
-0.0020896
-0.0019863
-0.00207478
-0.00199268
-0.00205112
-0.00208206
-0.00209278
-0.00210236
-0.00211246
-0.00211943
-0.00213071
-0.0021345
-0.00214725
-0.00214554
-0.00216876
-0.00214656
-0.00217358
-0.00211191
-0.00214135
-0.00212409
-0.00213684
-0.00207224
-0.002058
-0.0020915
-0.00207472
-0.00209449
-0.00210227
-0.00210853
-0.00211245
-0.00211772
-0.00212008
-0.00213194
-0.00214183
-0.00215897
-0.0021571
-0.00213604
-0.00212513
-0.00213419
-0.00220995
-0.00213069
-0.0022134
-0.00217924
-0.0021614
-0.00213478
-0.00209697
-0.00210586
-0.00210263
-0.00211423
-0.00211888
-0.00212249
-0.00212825
-0.00213667
-0.00215049
-0.00217384
-0.0021766
-0.00217548
-0.00217617
-0.00218329
-0.00223844
-0.00214
-0.00221545
-0.00216181
-0.00216029
-0.00208465
-0.00211009
-0.00211371
-0.00211598
-0.0021295
-0.00212347
-0.00212536
-0.00212164
-0.00213793
-0.00213852
-0.00214264
-0.00213402
-0.0021432
-0.00213941
-0.00210654
-0.00219161
-0.00216227
-0.00211836
-0.00211213
-0.00216217
-0.00209543
-0.00213325
-0.00216463
-0.00213712
-0.00215854
-0.00214401
-0.00213552
-0.00213314
-0.00213872
-0.00214579
-0.00216132
-0.00217302
-0.00218825
-0.0021944
-0.00223404
-0.00221678
-0.00217678
-0.00214114
-0.00213255
-0.00219201
-0.00214185
-0.00215002
-0.00215364
-0.00213557
-0.00215795
-0.00214765
-0.00212502
-0.00213951
-0.0021346
-0.00211487
-0.00212836
-0.00216198
-0.00217856
-0.002189
-0.00223524
-0.00223552
-0.00219191
-0.00222925
-0.00213296
-0.00226587
-0.00212003
-0.00215626
-0.00219916
-0.00215711
-0.00219747
-0.00215993
-0.00215921
-0.00217015
-0.00211409
-0.00212152
-0.00214598
-0.00216274
-0.00220279
-0.00222279
-0.00219777
-0.00223931
-0.00215107
-0.00222665
-0.00211251
-0.00218961
-0.00199165
-0.00215371
-0.00220425
-0.00217702
-0.00221077
-0.00216681
-0.0022102
-0.0021895
-0.00210738
-0.0020805
-0.00210621
-0.00216229
-0.00218472
-0.00214846
-0.00223597
-0.00235768
-0.00218051
-0.00217623
-0.00206746
-0.00206419
-0.00204176
-0.00211207
-0.00219419
-0.00218741
-0.00226422
-0.002204
-0.00225126
-0.00222835
-0.00218929
-0.0021612
-0.00219366
-0.00217562
-0.00221885
-0.00219085
-0.00229564
-0.00241719
-0.00223896
-0.00220878
-0.0020407
-0.00220617
-0.002101
-0.00203055
-0.00214492
-0.00223681
-0.00220467
-0.00222091
-0.00222387
-0.00220722
-0.00214131
-0.00219854
-0.00217086
-0.00219838
-0.00223604
-0.00216855
-0.00217859
-0.00205999
-0.00203549
-0.002212
-0.00204478
-0.00205012
-0.00197886
-0.00182301
-0.00201141
-0.00214473
-0.00226712
-0.00221851
-0.00222007
-0.00220277
-0.00213922
-0.00219825
-0.00223904
-0.00224682
-0.00221341
-0.00217917
-0.00214939
-0.00219878
-0.00214297
-0.00211836
-0.00217075
-0.00208065
-0.00170954
-0.00148676
-0.00177142
-0.00208197
-0.00216407
-0.00222764
-0.00219202
-0.00216113
-0.00220271
-0.00230986
-0.0024055
-0.00242099
-0.00215431
-0.00209433
-0.00214089
-0.00213476
-0.00213844
-0.00187046
-0.00181847
-0.00158628
-0.0013632
-0.000968572
-0.00137264
-0.00176937
-0.00200253
-0.0020305
-0.00196197
-0.00185775
-0.00204897
-0.00253441
-0.00264247
-0.00256569
-0.00210569
-0.00208466
-0.00199763
-0.00198668
-0.00217469
-0.00198867
-0.00208967
-0.0019033
-0.000908317
-0.000402731
-0.000918007
-0.00145269
-0.00184751
-0.00205961
-0.0021414
-0.00210541
-0.00211815
-0.00216887
-0.00214492
-0.00204147
-0.00201773
-0.00208818
-0.00202583
-0.00203762
-0.0019774
-0.00194366
-0.00153071
-0.000616646
0.00144529
)
;

boundaryField
{
    movingWall
    {
        type            zeroGradient;
    }
    fixedWalls
    {
        type            zeroGradient;
    }
    frontAndBack
    {
        type            empty;
    }
}


// ************************************************************************* //
