/*--------------------------------*- C++ -*----------------------------------*\
| =========                 |                                                 |
| \\      /  F ield         | OpenFOAM: The Open Source CFD Toolbox           |
|  \\    /   O peration     | Version:  5.x                                   |
|   \\  /    A nd           | Web:      www.OpenFOAM.org                      |
|    \\/     M anipulation  |                                                 |
\*---------------------------------------------------------------------------*/
FoamFile
{
    version     2.0;
    format      ascii;
    class       volScalarField;
    location    "12.6";
    object      p;
}
// * * * * * * * * * * * * * * * * * * * * * * * * * * * * * * * * * * * * * //

dimensions      [0 2 -2 0 0 0 0];

internalField   nonuniform List<scalar> 
400
(
4.49137e-10
-0.000487592
-0.000834642
-0.00105382
-0.00114575
-0.00119849
-0.00122258
-0.00123697
-0.00123756
-0.00123751
-0.00123287
-0.00121826
-0.00120477
-0.00120827
-0.00122666
-0.00117266
-0.00103551
-0.000762968
-0.000612682
0.000323552
-0.00052977
-0.000869205
-0.00105263
-0.00117669
-0.0011951
-0.00122446
-0.00123053
-0.00124208
-0.00124733
-0.00121573
-0.00124086
-0.00119896
-0.00121592
-0.00121595
-0.00125065
-0.00123361
-0.00120869
-0.0010796
-0.00105259
-0.000409419
-0.000834499
-0.00106934
-0.00115361
-0.00120434
-0.00123111
-0.00122286
-0.00123925
-0.00123191
-0.00124262
-0.00122691
-0.00123753
-0.0012187
-0.00122798
-0.00121581
-0.00124088
-0.00122175
-0.00121177
-0.00115005
-0.00109093
-0.000836781
-0.0010416
-0.00116362
-0.00122073
-0.00121676
-0.00123498
-0.00122802
-0.00123917
-0.00123386
-0.00124093
-0.00122721
-0.00123429
-0.00121642
-0.00122849
-0.0012103
-0.00123535
-0.00122453
-0.00120933
-0.00119024
-0.00124571
-0.00109133
-0.00113382
-0.00121033
-0.00121859
-0.00122256
-0.00122792
-0.00123007
-0.00123822
-0.00123615
-0.00124135
-0.0012295
-0.00123621
-0.00121819
-0.0012311
-0.00121478
-0.00123044
-0.00122099
-0.0012235
-0.00120622
-0.00119174
-0.00114279
-0.00119739
-0.00120624
-0.00122528
-0.00122438
-0.00123734
-0.00123722
-0.00124598
-0.00124279
-0.0012444
-0.00123556
-0.00123384
-0.00122142
-0.00122656
-0.00121106
-0.00122102
-0.00120642
-0.00122205
-0.00118755
-0.00122258
-0.0011851
-0.00121889
-0.00122818
-0.00123626
-0.00123804
-0.0012423
-0.00124759
-0.00125314
-0.0012521
-0.00125131
-0.00124182
-0.00123743
-0.00122419
-0.00123134
-0.00121818
-0.00122874
-0.00121997
-0.0012228
-0.00120163
-0.00121643
-0.00117663
-0.00124498
-0.00127754
-0.00125939
-0.00125524
-0.00126283
-0.00126844
-0.00127473
-0.00127169
-0.00126425
-0.00125194
-0.00123592
-0.00122518
-0.00122449
-0.00121199
-0.00122213
-0.00119864
-0.00122006
-0.0011788
-0.0011902
-0.00117242
-0.00129815
-0.00126908
-0.00127431
-0.0012721
-0.00128562
-0.00129703
-0.00130268
-0.00129762
-0.00128739
-0.00127003
-0.00124104
-0.00123084
-0.00123475
-0.00121814
-0.00122889
-0.00122536
-0.00123405
-0.00119269
-0.00123176
-0.00116927
-0.00127901
-0.00127582
-0.00127869
-0.00128861
-0.00132275
-0.00135224
-0.00136566
-0.00134612
-0.00131564
-0.001293
-0.00124364
-0.00122093
-0.00122552
-0.00121013
-0.00122607
-0.00120669
-0.00122988
-0.00117226
-0.00117727
-0.00117444
-0.00131296
-0.00132932
-0.00131951
-0.00135608
-0.00142809
-0.00149871
-0.00152074
-0.00146907
-0.00137574
-0.00131205
-0.00125547
-0.00122813
-0.00124502
-0.00124308
-0.00125545
-0.00121788
-0.00123616
-0.00120758
-0.00122173
-0.00119723
-0.00134323
-0.00134687
-0.00135288
-0.00142994
-0.00159432
-0.00175654
-0.00180641
-0.00173526
-0.00150641
-0.00134662
-0.00125525
-0.0012158
-0.00123002
-0.00121455
-0.00127349
-0.00120166
-0.00119625
-0.00118234
-0.00118497
-0.00120599
-0.00130114
-0.00134607
-0.00137516
-0.00155038
-0.0017594
-0.00198597
-0.00207784
-0.00194057
-0.00164128
-0.0013915
-0.00129252
-0.00123412
-0.00125503
-0.00127476
-0.00131348
-0.00122558
-0.00128411
-0.00120262
-0.00128571
-0.00117917
-0.00129431
-0.00134243
-0.00139935
-0.00154651
-0.00180183
-0.001979
-0.00208392
-0.00197122
-0.00167646
-0.00142031
-0.00128456
-0.00124746
-0.00129539
-0.00121064
-0.00125214
-0.00114296
-0.00115701
-0.0011018
-0.00109785
-0.00107716
-0.0012016
-0.0012693
-0.00130201
-0.00144453
-0.00167251
-0.00180907
-0.00195201
-0.00185811
-0.00158226
-0.00143866
-0.00128485
-0.00125425
-0.00117176
-0.00131047
-0.00140356
-0.00115088
-0.00128492
-0.0011432
-0.0012264
-0.00102938
-0.00104795
-0.00114282
-0.00119338
-0.00130083
-0.0014645
-0.00158843
-0.00163178
-0.00162524
-0.00147492
-0.00139007
-0.00134646
-0.00135259
-0.00137645
-0.00147719
-0.00137125
-0.00102524
-0.000974715
-0.000946513
-0.00101736
-0.000973384
-0.000837152
-0.000982296
-0.00102289
-0.00114805
-0.00129391
-0.00141977
-0.00148182
-0.00140843
-0.00129019
-0.00129053
-0.00148583
-0.00136152
-0.00137928
-0.00129826
-0.0010865
-0.00122302
-0.00121543
-0.00108221
-0.00126821
-0.00101581
-0.000593016
-0.000825907
-0.000903284
-0.000965938
-0.00108131
-0.00119048
-0.00126675
-0.00135513
-0.00139265
-0.00144249
-0.00148051
-0.00137243
-0.00121869
-0.00108712
-0.00110665
-0.0011803
-0.00117652
-0.00101237
-0.00101422
-0.000743532
-0.000637152
-0.000817152
-0.000784541
-0.000818391
-0.000862564
-0.000940926
-0.00118065
-0.00143598
-0.00146609
-0.00144793
-0.00142445
-0.00138058
-0.00144746
-0.00110584
-0.0011902
-0.0011445
-0.00103418
-0.00130494
-0.000838999
-0.000581526
-0.000744674
-0.000746717
-0.000706333
-0.000854309
-0.00100209
-0.00114846
-0.00129923
-0.00143232
-0.00141568
-0.00131883
-0.00122403
-0.00115786
-0.00111578
-0.00107859
-0.00107464
-0.00110606
-0.00118867
-0.000977728
-0.000317007
0.000955587
)
;

boundaryField
{
    movingWall
    {
        type            zeroGradient;
    }
    fixedWalls
    {
        type            zeroGradient;
    }
    frontAndBack
    {
        type            empty;
    }
}


// ************************************************************************* //
