/*--------------------------------*- C++ -*----------------------------------*\
| =========                 |                                                 |
| \\      /  F ield         | OpenFOAM: The Open Source CFD Toolbox           |
|  \\    /   O peration     | Version:  5.x                                   |
|   \\  /    A nd           | Web:      www.OpenFOAM.org                      |
|    \\/     M anipulation  |                                                 |
\*---------------------------------------------------------------------------*/
FoamFile
{
    version     2.0;
    format      ascii;
    class       volScalarField;
    location    "15";
    object      p;
}
// * * * * * * * * * * * * * * * * * * * * * * * * * * * * * * * * * * * * * //

dimensions      [0 2 -2 0 0 0 0];

internalField   nonuniform List<scalar> 
400
(
-4.96682e-09
-0.000480044
-0.000820084
-0.0010381
-0.00113659
-0.00118464
-0.00120981
-0.00121903
-0.00122785
-0.00122824
-0.00123742
-0.00123999
-0.00124707
-0.00124895
-0.0012363
-0.00119942
-0.00104209
-0.000754469
-0.000518225
0.000756908
-0.000524789
-0.000849129
-0.00104795
-0.00115545
-0.00118772
-0.00119918
-0.0012139
-0.00121995
-0.00122656
-0.00124012
-0.00123408
-0.00126273
-0.00125935
-0.00126159
-0.00126454
-0.00124374
-0.00130515
-0.00114078
-0.00115571
-0.000229844
-0.000839581
-0.00106718
-0.001146
-0.00119352
-0.00120896
-0.00121577
-0.00122572
-0.00123113
-0.00123898
-0.00124093
-0.00124731
-0.00125578
-0.0012702
-0.00126141
-0.00127838
-0.0012392
-0.00128682
-0.00120069
-0.00117297
-0.000795014
-0.00101744
-0.00115517
-0.00116715
-0.00119713
-0.00121028
-0.00121761
-0.00122913
-0.00123777
-0.00124551
-0.00125175
-0.00125666
-0.00126187
-0.00127703
-0.00126156
-0.00128581
-0.00124465
-0.00129671
-0.00121386
-0.00133688
-0.00110344
-0.00112195
-0.00118736
-0.00120126
-0.00121217
-0.0012207
-0.00122983
-0.00123858
-0.00124686
-0.00125642
-0.00125834
-0.00127287
-0.00126876
-0.00128337
-0.00127163
-0.00128677
-0.00124848
-0.00128998
-0.00123629
-0.00126126
-0.00116635
-0.00118361
-0.00122986
-0.00122497
-0.00122902
-0.0012333
-0.00124094
-0.00124994
-0.0012587
-0.00126935
-0.00126991
-0.00128261
-0.0012707
-0.00128944
-0.00127234
-0.00129189
-0.00125411
-0.00129094
-0.00123928
-0.00128206
-0.00121535
-0.00122264
-0.00125743
-0.00123795
-0.00123978
-0.00123925
-0.00124892
-0.00125846
-0.00126852
-0.00128606
-0.00128519
-0.00133563
-0.00129139
-0.00130101
-0.00128931
-0.00129802
-0.0012808
-0.00128323
-0.00125063
-0.00126594
-0.00124357
-0.00125587
-0.0012583
-0.00126151
-0.00124741
-0.0012551
-0.00126353
-0.00127765
-0.0012911
-0.00130477
-0.00131698
-0.00133873
-0.00131897
-0.0013057
-0.00129056
-0.00128636
-0.00128085
-0.00130163
-0.00127316
-0.0012659
-0.00131437
-0.00125398
-0.00129029
-0.00126054
-0.00126356
-0.00126104
-0.0012761
-0.00129116
-0.0013081
-0.00133411
-0.00138689
-0.00143203
-0.00135642
-0.00132904
-0.00132982
-0.00134179
-0.00133886
-0.00135573
-0.00133477
-0.00132808
-0.00136531
-0.00125258
-0.00124929
-0.00125168
-0.00125765
-0.00127531
-0.001295
-0.00132479
-0.00135303
-0.00137603
-0.00142108
-0.00142038
-0.00139171
-0.00134138
-0.0012951
-0.00131458
-0.00130602
-0.00133891
-0.00133551
-0.00137513
-0.00134565
-0.00124529
-0.00125092
-0.00125582
-0.00128256
-0.00130234
-0.0013195
-0.00139185
-0.001456
-0.0015125
-0.00147608
-0.00142004
-0.00137451
-0.00135143
-0.00132254
-0.00137381
-0.00135973
-0.0013468
-0.00133883
-0.00132208
-0.00127741
-0.00123711
-0.00126511
-0.00126095
-0.00127674
-0.00130197
-0.00134692
-0.00147545
-0.00159539
-0.00170312
-0.00161391
-0.00148792
-0.00132232
-0.00128591
-0.00128276
-0.00129353
-0.00129556
-0.00128859
-0.00126478
-0.00124746
-0.00125748
-0.00124981
-0.0012664
-0.00127067
-0.00128756
-0.00132356
-0.00138326
-0.00157638
-0.00175165
-0.00188759
-0.00175354
-0.00158859
-0.00143919
-0.00141926
-0.00135649
-0.00136885
-0.00133053
-0.0012854
-0.00128921
-0.00131016
-0.0012766
-0.0012195
-0.00123629
-0.00124151
-0.00124401
-0.0012897
-0.00136477
-0.00158001
-0.00175895
-0.00190211
-0.00179118
-0.0016316
-0.0014835
-0.00120296
-0.00132148
-0.00127293
-0.00134713
-0.00135325
-0.00123718
-0.0013383
-0.00126799
-0.00116845
-0.00120561
-0.00121171
-0.00121885
-0.00124602
-0.00131167
-0.00149573
-0.00165361
-0.00182273
-0.00176645
-0.00162271
-0.0014735
-0.001197
-0.00129856
-0.0013281
-0.00133417
-0.0015162
-0.00138613
-0.00145657
-0.00123209
-0.0011191
-0.00115617
-0.00117051
-0.00116405
-0.0011912
-0.00122369
-0.00134768
-0.0014889
-0.00160222
-0.00162266
-0.00158492
-0.00146222
-0.00140286
-0.00146681
-0.00128835
-0.00118798
-0.00119181
-0.00112177
-0.00113797
-0.00107501
-0.00097283
-0.00106944
-0.00108588
-0.00110525
-0.00113935
-0.00114884
-0.00120536
-0.00133615
-0.00143622
-0.00150131
-0.00148543
-0.0012165
-0.00150811
-0.00154898
-0.00126202
-0.00129837
-0.00140912
-0.00130159
-0.00139174
-0.000957379
-0.000818259
-0.000943965
-0.00103931
-0.00105289
-0.00108912
-0.00112616
-0.0011345
-0.00122679
-0.00137162
-0.00163875
-0.00174403
-0.00163098
-0.00147462
-0.00127691
-0.00125835
-0.00135664
-0.0012213
-0.00100702
-0.00104553
-0.000655394
-0.000558371
-0.000800077
-0.000944211
-0.000999793
-0.00104283
-0.00104402
-0.0011135
-0.00108239
-0.00137559
-0.00184816
-0.0021429
-0.00166291
-0.00133867
-0.00116153
-0.00122627
-0.00134268
-0.00121529
-0.0014376
-0.00111908
-0.000512499
-0.000287844
-0.000569178
-0.000836899
-0.00095449
-0.00103911
-0.00113788
-0.0012522
-0.00139501
-0.00145301
-0.00143512
-0.00137248
-0.00129618
-0.00114266
-0.00116754
-0.0012972
-0.00138637
-0.00138534
-0.000951523
3.80082e-05
0.00198064
)
;

boundaryField
{
    movingWall
    {
        type            zeroGradient;
    }
    fixedWalls
    {
        type            zeroGradient;
    }
    frontAndBack
    {
        type            empty;
    }
}


// ************************************************************************* //
