/*--------------------------------*- C++ -*----------------------------------*\
| =========                 |                                                 |
| \\      /  F ield         | OpenFOAM: The Open Source CFD Toolbox           |
|  \\    /   O peration     | Version:  5.x                                   |
|   \\  /    A nd           | Web:      www.OpenFOAM.org                      |
|    \\/     M anipulation  |                                                 |
\*---------------------------------------------------------------------------*/
FoamFile
{
    version     2.0;
    format      ascii;
    class       surfaceScalarField;
    location    "15";
    object      phi;
}
// * * * * * * * * * * * * * * * * * * * * * * * * * * * * * * * * * * * * * //

dimensions      [0 3 -1 0 0 0 0];

internalField   nonuniform List<scalar> 
760
(
-1.04293e-06
1.04293e-06
-1.76643e-06
7.23498e-07
-2.081e-06
3.14576e-07
-2.25084e-06
1.69834e-07
-2.30976e-06
5.89258e-08
-2.3363e-06
2.6542e-08
-2.3628e-06
2.64992e-08
-2.37733e-06
1.45268e-08
-2.41096e-06
3.36303e-08
-2.43327e-06
2.23105e-08
-2.46901e-06
3.57368e-08
-2.51753e-06
4.85187e-08
-2.55182e-06
3.4294e-08
-2.57034e-06
1.85209e-08
-2.59077e-06
2.04307e-08
-2.57102e-06
-1.97515e-08
-2.5293e-06
-4.1725e-08
-2.1726e-06
-3.56692e-07
-1.46394e-06
-7.08662e-07
-1.46394e-06
-6.19004e-07
1.66193e-06
-9.36536e-07
1.04103e-06
-1.007e-06
3.85043e-07
-1.05998e-06
2.22814e-07
-1.01911e-06
1.80518e-08
-1.05188e-06
5.93149e-08
-1.05008e-06
2.46945e-08
-1.0648e-06
2.92479e-08
-1.06882e-06
3.76522e-08
-1.07057e-06
2.40637e-08
-1.09396e-06
5.91254e-08
-1.08265e-06
3.72037e-08
-1.08936e-06
4.10024e-08
-1.06352e-06
-7.31124e-09
-1.08657e-06
4.34815e-08
-1.10988e-06
3.55799e-09
-1.16541e-06
1.37979e-08
-1.20884e-06
-3.13262e-07
-1.05837e-06
-8.59128e-07
-2.52231e-06
-2.78023e-07
1.93996e-06
-3.84294e-07
1.1473e-06
-3.33959e-07
3.34709e-07
-2.7743e-07
1.66284e-07
-2.9644e-07
3.70615e-08
-2.85256e-07
4.81317e-08
-3.12603e-07
5.20408e-08
-3.31385e-07
4.80305e-08
-3.41832e-07
4.80994e-08
-3.75163e-07
5.73939e-08
-3.82505e-07
6.64678e-08
-4.40121e-07
9.482e-08
-4.46874e-07
4.77551e-08
-4.82562e-07
2.83763e-08
-4.2519e-07
-1.38903e-08
-3.97513e-07
-2.41187e-08
-2.81179e-07
-1.02536e-07
-1.31738e-07
-4.62703e-07
-2.45239e-07
-7.45627e-07
-2.76755e-06
-1.51405e-07
2.09136e-06
-1.63232e-07
1.15913e-06
-1.47392e-07
3.18869e-07
-1.33681e-07
1.52573e-07
-1.91264e-07
9.46446e-08
-2.4299e-07
9.9858e-08
-2.72112e-07
8.11622e-08
-3.04711e-07
8.06302e-08
-2.91048e-07
3.44361e-08
-2.87596e-07
5.39417e-08
-2.28108e-07
6.98063e-09
-2.37598e-07
1.04309e-07
-2.15483e-07
2.56406e-08
-2.18901e-07
3.17936e-08
-1.98443e-07
-3.43483e-08
-1.14771e-07
-1.07791e-07
-1.64695e-07
-5.26113e-08
-2.1591e-07
-4.11488e-07
-2.1675e-07
-7.44787e-07
-2.9843e-06
-8.67219e-08
2.17808e-06
-1.33603e-07
1.20601e-06
-1.55293e-07
3.40559e-07
-1.6171e-07
1.5899e-07
-1.96576e-07
1.2951e-07
-2.36128e-07
1.3941e-07
-2.60428e-07
1.05462e-07
-2.70972e-07
9.11745e-08
-2.62028e-07
2.54925e-08
-2.06157e-07
-1.93002e-09
-1.24299e-07
-7.48767e-08
-1.3942e-07
1.1943e-07
-1.06121e-07
-7.65886e-09
-1.06116e-07
3.17889e-08
-1.56372e-07
1.59071e-08
-1.57608e-07
-1.06554e-07
-5.4055e-08
-1.56164e-07
7.7193e-08
-5.42736e-07
3.56541e-08
-7.03248e-07
-2.94865e-06
-5.06926e-08
2.22878e-06
-7.816e-08
1.23348e-06
-9.80314e-08
3.6043e-07
-1.6932e-07
2.30279e-07
-2.2584e-07
1.86029e-07
-2.70965e-07
1.84536e-07
-3.15846e-07
1.50343e-07
-3.24024e-07
9.93522e-08
-3.12551e-07
1.40198e-08
-2.246e-07
-8.98816e-08
-1.41635e-07
-1.57841e-07
-1.70573e-07
1.48368e-07
-1.5243e-07
-2.58021e-08
-1.46858e-07
2.62175e-08
-1.81721e-07
5.07694e-08
-1.63039e-07
-1.25236e-07
-1.47833e-07
-1.7137e-07
-1.47264e-07
-5.43306e-07
-9.81661e-08
-7.52345e-07
-3.04681e-06
-3.98707e-08
2.26865e-06
-4.96244e-08
1.24323e-06
-7.4017e-08
3.84823e-07
-1.27633e-07
2.83895e-07
-1.866e-07
2.44997e-07
-2.48279e-07
2.46215e-07
-3.18269e-07
2.20333e-07
-3.40817e-07
1.219e-07
-2.54607e-07
-7.21905e-08
-1.03629e-07
-2.40859e-07
-7.25581e-08
-1.88912e-07
-1.61578e-07
2.37388e-07
-1.28992e-07
-5.83884e-08
-1.30405e-07
2.76306e-08
-7.16165e-08
-8.01881e-09
-4.59798e-08
-1.50873e-07
-9.14308e-08
-1.25919e-07
-4.27357e-08
-5.92001e-07
8.33235e-09
-8.03414e-07
-3.03848e-06
-2.27553e-08
2.2914e-06
-5.47312e-08
1.27521e-06
-8.16983e-08
4.1179e-07
-1.42329e-07
3.44526e-07
-2.82559e-07
3.85226e-07
-3.7009e-07
3.33746e-07
-3.98971e-07
2.49214e-07
-4.01352e-07
1.24281e-07
-2.84342e-07
-1.89201e-07
-1.15832e-07
-4.09369e-07
-2.10895e-07
-9.38496e-08
-3.42048e-07
3.68542e-07
-3.35085e-07
-6.53521e-08
-3.07918e-07
4.63887e-10
-2.96673e-07
-1.92641e-08
-3.87704e-07
-5.98417e-08
-2.96315e-07
-2.17307e-07
-1.85691e-07
-7.02625e-07
-5.91206e-08
-9.29984e-07
-3.0976e-06
1.91056e-08
2.2723e-06
4.79892e-08
1.24632e-06
-2.13336e-08
4.81113e-07
-1.28378e-07
4.51571e-07
-2.30338e-07
4.87186e-07
-3.57927e-07
4.61335e-07
-4.39425e-07
3.30712e-07
-4.07345e-07
9.22015e-08
-2.86146e-07
-3.104e-07
-1.9622e-07
-4.99295e-07
-2.75877e-07
-1.4192e-08
-3.24443e-07
4.17108e-07
-2.38509e-07
-1.51287e-07
-2.71964e-07
3.39192e-08
-3.37338e-07
4.61097e-08
-2.76865e-07
-1.20314e-07
-2.46342e-07
-2.4783e-07
-2.03372e-07
-7.45596e-07
-3.54773e-08
-1.09788e-06
-3.13308e-06
4.14252e-08
2.23087e-06
9.58667e-09
1.27816e-06
-5.94245e-08
5.50124e-07
-2.58982e-07
6.51128e-07
-3.35313e-07
5.63517e-07
-3.95222e-07
5.21244e-07
-5.94554e-07
5.30044e-07
-6.85034e-07
1.82682e-07
-7.01599e-07
-2.93835e-07
-6.44176e-07
-5.56718e-07
-5.34956e-07
-1.23412e-07
-5.08749e-07
3.90901e-07
-3.85478e-07
-2.74558e-07
-2.85863e-07
-6.56962e-08
-2.43538e-07
3.78494e-09
-1.14934e-07
-2.48919e-07
7.88113e-08
-4.41575e-07
-1.07616e-08
-6.56023e-07
-4.48365e-08
-1.0638e-06
-3.17792e-06
-2.77655e-09
2.23365e-06
2.22213e-08
1.25316e-06
-1.26333e-07
6.98678e-07
-1.37357e-07
6.62152e-07
-1.6166e-07
5.87821e-07
-3.0902e-07
6.68605e-07
-5.73396e-07
7.94419e-07
-7.85458e-07
3.94744e-07
-9.38045e-07
-1.41248e-07
-8.84414e-07
-6.10349e-07
-4.81756e-07
-5.2607e-07
-3.64455e-08
-5.44099e-08
1.21533e-07
-4.32536e-07
8.08089e-08
-2.49724e-08
7.35532e-08
1.10406e-08
-5.16705e-09
-1.70198e-07
1.13715e-07
-5.60457e-07
1.67856e-07
-7.10164e-07
2.89989e-08
-9.24947e-07
-3.14892e-06
7.22638e-09
2.22642e-06
-6.23154e-08
1.32271e-06
3.98588e-08
5.96504e-07
1.59313e-07
5.42697e-07
7.79117e-09
7.39343e-07
-2.82066e-07
9.58462e-07
-4.82108e-07
9.94461e-07
-6.44151e-07
5.56787e-07
-8.02949e-07
1.75498e-08
-8.40853e-07
-5.72445e-07
-6.25964e-07
-7.40959e-07
-5.70703e-08
-6.23303e-07
1.49371e-07
-6.38977e-07
1.89023e-07
-6.46249e-08
3.2512e-07
-1.25056e-07
1.8169e-07
-2.6768e-08
-1.32507e-08
-3.65517e-07
-2.25817e-08
-7.00833e-07
3.88976e-08
-9.86426e-07
-3.11002e-06
1.75333e-08
2.20889e-06
4.47577e-08
1.29548e-06
9.88396e-08
5.42422e-07
9.2173e-08
5.49364e-07
1.30443e-08
8.18472e-07
-4.45708e-08
1.01608e-06
-1.01376e-07
1.05127e-06
-1.97743e-07
6.53154e-07
-2.31321e-07
5.11274e-08
-1.7637e-07
-6.27396e-07
-2.60564e-07
-6.56765e-07
-3.521e-08
-8.48657e-07
2.15824e-07
-8.90011e-07
2.39202e-07
-8.80038e-08
2.86309e-07
-1.72162e-07
1.14293e-07
1.45247e-07
-1.92175e-07
-5.90484e-08
-1.84796e-07
-7.08212e-07
-5.19892e-08
-1.11923e-06
-3.16201e-06
2.92643e-08
2.17962e-06
1.10162e-07
1.21458e-06
1.13726e-07
5.38858e-07
1.01822e-07
5.61268e-07
2.90537e-07
6.29757e-07
4.16824e-07
8.8979e-07
3.89576e-07
1.07851e-06
3.91456e-07
6.51273e-07
3.49214e-07
9.33695e-08
2.59964e-07
-5.38145e-07
7.29223e-08
-4.69724e-07
1.04942e-07
-8.80677e-07
-8.50683e-08
-7e-07
-2.44337e-07
7.12647e-08
-2.56332e-07
-1.60167e-07
-3.70994e-07
2.59909e-07
-1.14257e-07
-3.15785e-07
-8.65258e-08
-7.35943e-07
1.39746e-08
-1.21973e-06
-3.14803e-06
7.0174e-09
2.17261e-06
4.57932e-08
1.17581e-06
1.27165e-07
4.57486e-07
3.52284e-07
3.36149e-07
4.91105e-07
4.90936e-07
6.07441e-07
7.73454e-07
8.28733e-07
8.57222e-07
1.01938e-06
4.60622e-07
1.03872e-06
7.40293e-08
9.76208e-07
-4.75629e-07
1.05521e-06
-5.48721e-07
1.00613e-06
-8.31599e-07
9.30974e-07
-6.24847e-07
7.82116e-07
2.20123e-07
5.82728e-07
3.92213e-08
6.46637e-07
1.95999e-07
5.63367e-07
-2.32515e-07
9.73377e-08
-2.69914e-07
-8.53057e-08
-1.03709e-06
-3.23334e-06
1.82449e-07
1.99016e-06
2.49831e-07
1.10843e-06
3.15946e-07
3.91371e-07
2.78598e-07
3.73497e-07
5.35738e-07
2.33796e-07
7.81398e-07
5.27794e-07
1.07134e-06
5.67275e-07
1.3377e-06
1.94269e-07
1.46099e-06
-4.92685e-08
1.54336e-06
-5.57992e-07
1.54199e-06
-5.47356e-07
1.10814e-06
-3.97744e-07
8.66472e-07
-3.83181e-07
7.97196e-07
2.89398e-07
4.41561e-07
3.94857e-07
4.21054e-07
2.16506e-07
3.1632e-07
-1.2778e-07
2.04866e-07
-1.5846e-07
1.77263e-07
-1.00949e-06
-3.05608e-06
1.13934e-07
1.87622e-06
2.65948e-07
9.56413e-07
3.84082e-07
2.73236e-07
4.0935e-07
3.4823e-07
5.97361e-07
4.57844e-08
9.31747e-07
1.93407e-07
1.15171e-06
3.47311e-07
1.41961e-06
-7.36276e-08
1.63349e-06
-2.63152e-07
1.58119e-06
-5.05695e-07
1.07707e-06
-4.32288e-08
1.6141e-07
5.17913e-07
-5.95456e-07
3.73685e-07
-4.45581e-07
1.39523e-07
-3.64681e-08
-1.42558e-08
-1.05388e-07
2.85426e-07
3.55763e-07
-5.88931e-07
3.83843e-07
-1.8654e-07
-8.91063e-08
-5.36538e-07
-3.14518e-06
3.7361e-07
1.50261e-06
4.25649e-07
9.04374e-07
4.81613e-07
2.17272e-07
6.33509e-07
1.96334e-07
5.7182e-07
1.07474e-07
7.69897e-07
-4.67014e-09
1.04377e-06
7.34392e-08
1.24119e-06
-2.7105e-07
1.46399e-06
-4.85951e-07
1.36514e-06
-4.06849e-07
1.30498e-06
1.69316e-08
1.36371e-06
4.59191e-07
1.10625e-06
6.31139e-07
7.70435e-07
4.7534e-07
8.30405e-07
-7.42257e-08
6.27142e-07
4.88689e-07
3.55769e-07
-3.17558e-07
1.61692e-07
7.5368e-09
3.21595e-07
-6.96441e-07
-2.82359e-06
4.68221e-07
1.03439e-06
7.2691e-07
6.45685e-07
6.52289e-07
2.91893e-07
6.29027e-07
2.19595e-07
5.33274e-07
2.03227e-07
3.40803e-07
1.87802e-07
1.82804e-07
2.31438e-07
-1.84217e-07
9.59706e-08
-7.96112e-07
1.25945e-07
-1.18466e-06
-1.82986e-08
-1.22882e-06
6.10902e-08
-7.14094e-07
-5.5536e-08
-2.15376e-07
1.32421e-07
1.16528e-07
1.43436e-07
-6.91821e-08
1.11484e-07
2.76887e-07
1.4262e-07
1.10916e-08
-5.17622e-08
2.42826e-07
-2.24198e-07
9.01743e-07
-1.35536e-06
-1.92185e-06
1.03439e-06
1.68008e-06
1.97197e-06
2.19156e-06
2.39479e-06
2.58259e-06
2.81403e-06
2.91e-06
3.03595e-06
3.01765e-06
3.07874e-06
3.0232e-06
3.15562e-06
3.29906e-06
3.41054e-06
3.55316e-06
3.5014e-06
3.2772e-06
1.92185e-06
)
;

boundaryField
{
    movingWall
    {
        type            calculated;
        value           uniform 0;
    }
    fixedWalls
    {
        type            calculated;
        value           uniform 0;
    }
    frontAndBack
    {
        type            empty;
        value           nonuniform 0();
    }
}


// ************************************************************************* //
