/*--------------------------------*- C++ -*----------------------------------*\
| =========                 |                                                 |
| \\      /  F ield         | OpenFOAM: The Open Source CFD Toolbox           |
|  \\    /   O peration     | Version:  5.x                                   |
|   \\  /    A nd           | Web:      www.OpenFOAM.org                      |
|    \\/     M anipulation  |                                                 |
\*---------------------------------------------------------------------------*/
FoamFile
{
    version     2.0;
    format      ascii;
    class       volVectorField;
    location    "15";
    object      U;
}
// * * * * * * * * * * * * * * * * * * * * * * * * * * * * * * * * * * * * * //

dimensions      [0 1 -1 0 0 0 0];

internalField   nonuniform List<vector> 
400
(
(-0.014524 0.00623619 0)
(-0.0307934 0.00579631 0)
(-0.0393706 0.00334935 0)
(-0.0429809 -0.00016448 0)
(-0.0454697 0.000793236 0)
(-0.045713 -0.00117499 0)
(-0.0472618 0.000726792 0)
(-0.0466696 -0.000660159 0)
(-0.0483676 0.00109251 0)
(-0.0479284 -0.00031243 0)
(-0.0491722 0.000516861 0)
(-0.0500497 0.000499868 0)
(-0.0500091 -0.000149782 0)
(-0.0529749 0.000791755 0)
(-0.0505974 -0.000682042 0)
(-0.0549689 0.000745468 0)
(-0.0491976 -0.00168526 0)
(-0.0488354 -0.00513059 0)
(-0.0449412 -0.0102128 0)
(-0.00540751 -0.0198799 0)
(-0.00803112 0.031561 0)
(-0.0190766 0.0204121 0)
(-0.0176172 0.0077358 0)
(-0.0220199 0.00614131 0)
(-0.019375 0.00125179 0)
(-0.0208503 0.0021523 0)
(-0.0210214 0.000373462 0)
(-0.0213288 0.00128845 0)
(-0.0206003 0.000357275 0)
(-0.0230346 0.00110396 0)
(-0.0187019 0.00102624 0)
(-0.02616 0.00121955 0)
(-0.0169125 0.00142457 0)
(-0.0261412 -0.000143632 0)
(-0.0173513 0.00137145 0)
(-0.0245123 -0.00172472 0)
(-0.0224777 -0.00065567 0)
(-0.0211034 -0.0113775 0)
(-0.0324355 -0.0223358 0)
(-0.00362488 -0.0450655 0)
(-0.00515273 0.0366081 0)
(-0.00741635 0.0217976 0)
(-0.00700017 0.00830972 0)
(-0.0065916 0.00321425 0)
(-0.0041285 -0.00046337 0)
(-0.00765669 0.000103081 0)
(-0.00378107 0.000527864 0)
(-0.00857455 -0.00020545 0)
(-0.00489912 0.00102406 0)
(-0.0085262 -4.43956e-05 0)
(-0.00654653 0.00118878 0)
(-0.00858936 0.000443824 0)
(-0.00950981 0.000235975 0)
(-0.00772409 -0.000108917 0)
(-0.0124516 0.00045322 0)
(-0.00346196 0.00193158 0)
(-0.0137527 0.00150196 0)
(0.00355049 0.000153381 0)
(-0.00986484 -0.00843143 0)
(0.0019473 -0.0530561 0)
(-0.003458 0.0424555 0)
(-0.00349597 0.0253982 0)
(-0.00234075 0.0058504 0)
(-0.0038753 0.00383117 0)
(-0.00139195 0.00208839 0)
(-0.00605455 0.00197102 0)
(-0.00383971 0.00167136 0)
(-0.00701723 0.00220316 0)
(-0.00519109 0.00100151 0)
(-0.00640954 0.00221842 0)
(-0.00502341 0.0015825 0)
(-0.00389351 0.00320471 0)
(-0.00604955 0.00166287 0)
(-0.00202118 0.00132097 0)
(-0.00741103 -0.00103637 0)
(0.000270216 -0.00295396 0)
(-0.00558601 -0.00589204 0)
(5.90807e-05 -0.0179687 0)
(-0.0102573 -0.0237782 0)
(0.00318564 -0.0579039 0)
(-0.00197809 0.0422079 0)
(-0.00193946 0.0221643 0)
(-0.00304383 0.00649533 0)
(-0.00304382 0.00207647 0)
(-0.00333985 0.00158625 0)
(-0.00461612 0.00187432 0)
(-0.00486168 0.00149474 0)
(-0.00545955 0.0010202 0)
(-0.00558956 0.000335401 0)
(-0.00458047 2.91934e-05 0)
(-0.00400731 -0.00133724 0)
(-0.000668347 0.000849772 0)
(-0.00525712 -0.000611953 0)
(0.00134573 -0.000158704 0)
(-0.00599943 -0.00025034 0)
(0.000386502 -0.00140713 0)
(-0.00742955 0.00393459 0)
(0.0056977 0.00100068 0)
(-0.00316562 -0.00377758 0)
(0.004982 -0.057874 0)
(-0.0011138 0.0458926 0)
(-0.00123228 0.0251015 0)
(-0.00158471 0.00728105 0)
(-0.00246079 0.00417484 0)
(-0.00422493 0.00345566 0)
(-0.00492353 0.00369643 0)
(-0.00602619 0.00263724 0)
(-0.0064763 0.00254817 0)
(-0.00674978 0.000705537 0)
(-0.00538896 -0.000115788 0)
(-0.0039992 -0.00137808 0)
(-0.00127139 0.00416569 0)
(-0.00602637 0.000337008 0)
(0.000399536 0.00155388 0)
(-0.00679822 0.000854471 0)
(0.000223792 -0.00263506 0)
(-0.00747729 -0.0103792 0)
(0.00229683 -0.0221105 0)
(-0.00895613 -0.0257348 0)
(0.0056147 -0.0606681 0)
(-0.00118393 0.0436802 0)
(-0.000672976 0.0248357 0)
(-0.00104587 0.00748026 0)
(-0.00205002 0.00520074 0)
(-0.00290848 0.00422915 0)
(-0.00473756 0.00388098 0)
(-0.00529404 0.00357316 0)
(-0.00725239 0.00159251 0)
(-0.00676887 -0.000140316 0)
(-0.00281425 -0.0033265 0)
(-0.00188884 -0.0054824 0)
(-0.00055411 0.00156884 0)
(-0.00639147 -0.00145003 0)
(0.00156038 -0.000628446 0)
(-0.00712482 0.00103777 0)
(0.00451137 -0.00272773 0)
(-0.00656943 0.00386397 0)
(0.0033022 0.000336732 0)
(-0.00528258 -0.00343313 0)
(0.00571815 -0.059026 0)
(0.000284576 0.0475946 0)
(-0.00121003 0.0255776 0)
(-0.00110983 0.00744898 0)
(-0.00191167 0.00637074 0)
(-0.00401357 0.0052661 0)
(-0.0072121 0.00576091 0)
(-0.00779711 0.00498853 0)
(-0.00809487 0.00307313 0)
(-0.00811481 -0.00271244 0)
(-0.0029257 -0.00599587 0)
(-0.00206717 -0.00133334 0)
(-0.00591085 0.00814227 0)
(-0.0080707 -0.000712302 0)
(-0.00499148 0.00190079 0)
(-0.00764927 -0.00124064 0)
(-0.00379205 -0.0027984 0)
(-0.0125 -0.00893669 0)
(0.00132238 -0.0234717 0)
(-0.00878894 -0.0279385 0)
(0.00608601 -0.06373 0)
(-0.0013614 0.0446503 0)
(0.00191979 0.0239103 0)
(0.000314044 0.00943895 0)
(-0.00129153 0.00698289 0)
(-0.00358815 0.0105351 0)
(-0.00592071 0.00783361 0)
(-0.00848149 0.00534421 0)
(-0.008882 0.00220144 0)
(-0.00700526 -0.00466672 0)
(-0.0046937 -0.0111211 0)
(-0.00380938 -0.00305483 0)
(-0.00629543 0.0062245 0)
(-0.0067683 -0.0021006 0)
(-0.0030412 -0.00193821 0)
(-0.0082076 0.000224352 0)
(-0.00480613 -1.73837e-05 0)
(-0.00682648 -0.00039585 0)
(-0.0025116 -0.00572663 0)
(-0.0055443 -0.01035 0)
(0.00388325 -0.0618119 0)
(0.00196836 0.0456799 0)
(-0.000208469 0.0276847 0)
(0.000563246 0.0101128 0)
(-0.00283025 0.0117636 0)
(-0.00772418 0.00877191 0)
(-0.00543369 0.0104344 0)
(-0.0107142 0.00807617 0)
(-0.0134 0.00169648 0)
(-0.0133503 -0.00706941 0)
(-0.0155062 -0.0080965 0)
(-0.010451 0.00271388 0)
(-0.0111089 0.00981671 0)
(-0.0086544 -0.00374598 0)
(-0.00613029 0.00359509 0)
(-0.00603127 0.00200996 0)
(-0.00311976 -0.00415292 0)
(-0.00190524 -0.00886889 0)
(0.00537226 -0.0234949 0)
(-0.00598627 -0.0348687 0)
(0.00448565 -0.0645587 0)
(-0.00209067 0.0443467 0)
(0.0019515 0.0222448 0)
(-0.000967844 0.011497 0)
(-0.00436981 0.0133839 0)
(-0.000997492 0.0131589 0)
(-0.00504238 0.0105271 0)
(-0.00796272 0.0131314 0)
(-0.0151194 0.00554027 0)
(-0.0173831 -0.00516171 0)
(-0.0190268 -0.0134024 0)
(-0.0157654 -0.00723964 0)
(-0.00296782 0.00607059 0)
(0.001358 -0.00787389 0)
(0.00395899 -0.00663317 0)
(-0.00120043 -0.00199632 0)
(0.00444794 -0.00680501 0)
(-0.00464878 -0.00970041 0)
(0.00902192 -0.00378491 0)
(-0.00222076 -0.00721736 0)
(0.00357951 -0.0603773 0)
(0.00126987 0.0441247 0)
(-0.00107457 0.0280786 0)
(-0.00116014 0.0162091 0)
(0.00268312 0.0138526 0)
(0.00381346 0.0110868 0)
(-0.00341448 0.0161524 0)
(-0.00863627 0.0185908 0)
(-0.0109336 0.00989511 0)
(-0.016312 -0.00085573 0)
(-0.0142866 -0.0119887 0)
(-0.0191383 -0.0142401 0)
(-0.00440599 -0.00776963 0)
(0.00179234 -0.00790415 0)
(0.00419228 0.00592878 0)
(0.00303647 0.00269658 0)
(0.0102457 0.000866216 0)
(-0.00321504 -0.0115525 0)
(0.00273548 -0.0230546 0)
(-0.00357619 -0.0280003 0)
(0.0049317 -0.0642532 0)
(-0.000415412 0.0443645 0)
(0.00102322 0.0243071 0)
(0.000915588 0.00708661 0)
(0.00317011 0.00698587 0)
(0.000426967 0.0173575 0)
(0.000252677 0.0210888 0)
(-0.00241221 0.0196057 0)
(-0.0018162 0.0109877 0)
(-0.00705981 0.00134369 0)
(-0.00112897 -0.0120281 0)
(-0.00557088 -0.0165969 0)
(-0.00404916 -0.0188995 0)
(0.00230462 -0.0202704 0)
(0.00706847 -0.00904865 0)
(0.00170858 -0.00859527 0)
(0.0102285 -0.00219124 0)
(-0.00527766 -0.00256247 0)
(-0.00279284 -0.00643822 0)
(-0.00505884 -0.0132561 0)
(0.00326535 -0.0620828 0)
(0.000914909 0.0448189 0)
(0.000131553 0.0281103 0)
(0.00442098 0.0151658 0)
(0.000451861 0.015915 0)
(0.00344723 0.0163504 0)
(0.00897719 0.0195893 0)
(0.00648095 0.0230547 0)
(0.00906263 0.0159369 0)
(0.00533571 0.00096445 0)
(0.00978927 -0.0123206 0)
(0.00119076 -0.00923008 0)
(0.00128905 -0.014281 0)
(0.00394723 -0.0122109 0)
(-0.00833756 0.0059952 0)
(-0.000241521 0.0027505 0)
(-0.011018 0.00796105 0)
(-0.00383294 0.000382429 0)
(0.000167117 -0.019986 0)
(-0.00445833 -0.0298133 0)
(0.00527796 -0.065272 0)
(-0.000895574 0.0416813 0)
(0.00106587 0.0204013 0)
(0.000936361 0.00601874 0)
(0.00436872 0.00573873 0)
(0.0101539 0.00846405 0)
(0.0103392 0.0163551 0)
(0.0126417 0.020756 0)
(0.0204953 0.0104617 0)
(0.0181471 0.00248165 0)
(0.0249843 -0.0100112 0)
(0.0154435 -0.00893126 0)
(0.0253272 -0.0203835 0)
(0.018024 -0.0154029 0)
(0.0163521 -0.00263922 0)
(0.0158759 -0.010036 0)
(0.00888094 0.00166621 0)
(0.0145074 -0.0149473 0)
(0.0103957 -0.0124526 0)
(-0.00746594 -0.0226153 0)
(0.00499565 -0.0631596 0)
(0.00260814 0.044158 0)
(0.00422298 0.0260447 0)
(0.00574757 0.0120835 0)
(0.00746282 0.00819321 0)
(0.00359164 0.011669 0)
(0.0187449 0.0154915 0)
(0.0114356 0.0146142 0)
(0.030294 0.00875548 0)
(0.0224405 0.000994072 0)
(0.0368949 -0.0078365 0)
(0.0239447 -0.0138716 0)
(0.0400295 -0.0148739 0)
(0.00407039 -0.0115337 0)
(0.0280761 0.0103172 0)
(0.00610062 0.0119056 0)
(0.0111841 0.00742078 0)
(0.00448222 0.0078371 0)
(0.00913408 0.00382295 0)
(-0.00171148 -0.0142437 0)
(0.00946053 -0.0629901 0)
(-0.000207459 0.0371217 0)
(0.00413168 0.0186975 0)
(0.0071551 0.00437403 0)
(0.00851524 0.00691743 0)
(0.00737424 -0.00230477 0)
(0.017393 0.00624858 0)
(0.0204829 0.00893928 0)
(0.023972 -0.000616873 0)
(0.0331179 -0.00271285 0)
(0.0308802 -0.0127965 0)
(0.0301685 -0.00585129 0)
(0.0170757 0.00162243 0)
(-0.0122186 -0.00445987 0)
(-0.011596 -7.10378e-06 0)
(-0.00383118 0.00381335 0)
(0.00194622 9.11313e-05 0)
(-0.00694254 -0.0145017 0)
(0.0229015 -0.0118772 0)
(-0.00993348 -0.0310566 0)
(0.00767499 -0.0630236 0)
(0.00590143 0.0358929 0)
(0.00800017 0.0199773 0)
(0.0083009 0.00584299 0)
(0.0119814 0.00694569 0)
(0.0127615 0.00417288 0)
(0.0101271 0.000816059 0)
(0.021981 0.00459209 0)
(0.0188871 -0.00268216 0)
(0.0321615 -0.00834826 0)
(0.0234579 -0.00886807 0)
(0.0302822 0.00369921 0)
(0.0241201 0.0158046 0)
(0.0295358 0.0200663 0)
(0.0169638 0.00678717 0)
(0.0126984 -0.00449968 0)
(0.0181443 0.0114724 0)
(0.00826783 -0.00641315 0)
(0.00756845 0.0065584 0)
(-0.00262192 0.0129253 0)
(0.0177844 -0.0577506 0)
(0.00243127 0.0259263 0)
(0.0145192 0.015008 0)
(0.0152403 0.00328671 0)
(0.011549 0.000808597 0)
(0.0133694 0.000431689 0)
(0.00901091 -0.000876683 0)
(0.00353539 -0.0012674 0)
(0.00503447 -0.0065041 0)
(-0.0131195 -0.0106443 0)
(-0.0211935 -0.00978573 0)
(-0.0298778 -0.00370294 0)
(-0.0144938 0.003081 0)
(-0.0149487 0.00502752 0)
(0.00700488 0.0118506 0)
(-0.00302449 0.00197455 0)
(-0.00037589 0.00924922 0)
(0.0132675 -0.00662053 0)
(-0.0132689 -0.00707758 0)
(0.0240994 -0.0455527 0)
(0.015901 -0.0671284 0)
(0.0084046 0.0178527 0)
(0.0304716 0.012835 0)
(0.034982 0.00921305 0)
(0.0459148 0.00840969 0)
(0.0421171 0.00726983 0)
(0.0541161 0.00736639 0)
(0.0496772 0.00935384 0)
(0.0614087 0.00913793 0)
(0.0566033 0.0150804 0)
(0.0632752 0.00966814 0)
(0.0587028 0.00768568 0)
(0.0645925 -0.00438064 0)
(0.0603151 0.00110228 0)
(0.0635472 -0.00674618 0)
(0.0650561 0.00184851 0)
(0.0695433 -0.00412271 0)
(0.0686998 0.00393991 0)
(0.0697995 0.000631693 0)
(0.0559923 -0.000632617 0)
(0.0314095 0.00390153 0)
)
;

boundaryField
{
    movingWall
    {
        type            fixedValue;
        value           uniform (1 0 0);
    }
    fixedWalls
    {
        type            noSlip;
    }
    frontAndBack
    {
        type            empty;
    }
}


// ************************************************************************* //
