/*--------------------------------*- C++ -*----------------------------------*\
| =========                 |                                                 |
| \\      /  F ield         | OpenFOAM: The Open Source CFD Toolbox           |
|  \\    /   O peration     | Version:  5.x                                   |
|   \\  /    A nd           | Web:      www.OpenFOAM.org                      |
|    \\/     M anipulation  |                                                 |
\*---------------------------------------------------------------------------*/
FoamFile
{
    version     2.0;
    format      ascii;
    class       volScalarField;
    location    "2.1";
    object      p;
}
// * * * * * * * * * * * * * * * * * * * * * * * * * * * * * * * * * * * * * //

dimensions      [0 2 -2 0 0 0 0];

internalField   nonuniform List<scalar> 
400
(
-3.02978e-11
1.86419e-07
5.9403e-07
1.22955e-06
2.11008e-06
3.25506e-06
4.68424e-06
6.41459e-06
8.45668e-06
1.08106e-05
1.34611e-05
1.63739e-05
1.94928e-05
2.27257e-05
2.59536e-05
2.90296e-05
3.17868e-05
3.40504e-05
3.56593e-05
3.64737e-05
-2.17455e-07
-3.70313e-08
3.59633e-07
9.80224e-07
1.84356e-06
2.97138e-06
4.38621e-06
6.10833e-06
8.15204e-06
1.05214e-05
1.32052e-05
1.61719e-05
1.9372e-05
2.27133e-05
2.60725e-05
2.92957e-05
3.22048e-05
3.46092e-05
3.63284e-05
3.72021e-05
-6.80968e-07
-5.12945e-07
-1.38617e-07
4.51627e-07
1.28008e-06
2.3731e-06
3.75893e-06
5.46459e-06
7.51211e-06
9.91393e-06
1.26674e-05
1.57485e-05
1.91149e-05
2.2677e-05
2.63093e-05
2.98447e-05
3.30808e-05
3.57914e-05
3.77533e-05
3.87593e-05
-1.37518e-06
-1.2271e-06
-8.88877e-07
-3.47993e-07
4.23074e-07
1.45762e-06
2.79248e-06
4.46489e-06
6.50873e-06
8.9497e-06
1.17992e-05
1.50457e-05
1.86583e-05
2.25571e-05
2.66157e-05
3.06493e-05
3.44173e-05
3.76363e-05
4.00097e-05
4.12458e-05
-2.28516e-06
-2.16659e-06
-1.88207e-06
-1.41521e-06
-7.31443e-07
2.11831e-07
1.46292e-06
3.07285e-06
5.09172e-06
7.56407e-06
1.05232e-05
1.39854e-05
1.79062e-05
2.22582e-05
2.69112e-05
3.16623e-05
3.62218e-05
4.02209e-05
4.32458e-05
4.48634e-05
-3.3878e-06
-3.31102e-06
-3.10285e-06
-2.74218e-06
-2.18534e-06
-1.37819e-06
-2.58162e-07
1.24297e-06
3.19587e-06
5.66923e-06
8.72343e-06
1.24004e-05
1.67072e-05
2.16291e-05
2.70588e-05
3.2789e-05
3.84778e-05
4.36383e-05
4.76739e-05
4.99292e-05
-4.64961e-06
-4.63048e-06
-4.52782e-06
-4.31503e-06
-3.93704e-06
-3.32593e-06
-2.4025e-06
-1.0783e-06
7.41972e-07
3.15704e-06
6.26324e-06
1.01447e-05
1.48616e-05
2.0447e-05
2.68384e-05
3.38516e-05
4.11098e-05
4.79817e-05
5.35856e-05
5.69481e-05
-6.02329e-06
-6.08249e-06
-6.12283e-06
-6.11122e-06
-5.97851e-06
-5.64117e-06
-5.00148e-06
-3.94865e-06
-2.35961e-06
-1.00371e-07
2.9708e-06
6.99623e-06
1.21049e-05
1.83911e-05
2.59026e-05
3.45292e-05
4.39115e-05
5.3295e-05
6.13469e-05
6.67305e-05
-7.44311e-06
-7.60839e-06
-7.83983e-06
-8.09664e-06
-8.2922e-06
-8.32601e-06
-8.08121e-06
-7.42415e-06
-6.20295e-06
-4.24589e-06
-1.35999e-06
2.66823e-06
8.07361e-06
1.50006e-05
2.37167e-05
3.42641e-05
4.64256e-05
5.94418e-05
7.13426e-05
8.05938e-05
-8.81881e-06
-9.12944e-06
-9.61353e-06
-1.0223e-05
-1.0848e-05
-1.13708e-05
-1.16566e-05
-1.15506e-05
-1.08748e-05
-9.4218e-06
-6.94756e-06
-3.16269e-06
2.26895e-06
9.72334e-06
1.95139e-05
3.21213e-05
4.77239e-05
6.5818e-05
8.37464e-05
0.000100659
-1.00222e-05
-1.0544e-05
-1.1358e-05
-1.24269e-05
-1.36008e-05
-1.47502e-05
-1.5725e-05
-1.63541e-05
-1.64402e-05
-1.57505e-05
-1.40023e-05
-1.08447e-05
-5.83391e-06
1.61094e-06
1.20207e-05
2.65022e-05
4.60287e-05
7.0813e-05
9.77279e-05
0.00013012
-1.09048e-05
-1.17188e-05
-1.29601e-05
-1.46237e-05
-1.64857e-05
-1.84174e-05
-2.02589e-05
-2.18284e-05
-2.29211e-05
-2.32947e-05
-2.26465e-05
-2.05801e-05
-1.65437e-05
-9.78397e-06
9.20633e-07
1.57969e-05
3.8606e-05
7.09689e-05
0.000109561
0.000172297
-1.11239e-05
-1.25952e-05
-1.42845e-05
-1.67961e-05
-1.94554e-05
-2.23269e-05
-2.52129e-05
-2.79327e-05
-3.02881e-05
-3.20577e-05
-3.29649e-05
-3.26527e-05
-3.0634e-05
-2.6254e-05
-1.87751e-05
-7.21786e-06
1.77302e-05
5.74893e-05
0.000103512
0.000219313
-1.07945e-05
-1.21182e-05
-1.4936e-05
-1.81234e-05
-2.20622e-05
-2.61886e-05
-3.04224e-05
-3.45378e-05
-3.84003e-05
-4.18517e-05
-4.46633e-05
-4.65351e-05
-4.70223e-05
-4.54119e-05
-4.0167e-05
-2.79738e-05
-1.24738e-05
2.53328e-05
3.70785e-05
0.000218916
-8.4423e-06
-1.43688e-05
-1.60877e-05
-2.3145e-05
-2.67226e-05
-3.17152e-05
-3.66454e-05
-4.18746e-05
-4.72721e-05
-5.26928e-05
-5.79693e-05
-6.29849e-05
-6.75217e-05
-7.16633e-05
-7.45717e-05
-7.64274e-05
-8.62798e-05
-5.91837e-05
-0.000167571
9.73962e-05
-5.8186e-06
-8.35227e-06
-1.34249e-05
-1.703e-05
-2.41099e-05
-3.08419e-05
-3.8739e-05
-4.67976e-05
-5.48887e-05
-6.28274e-05
-7.05985e-05
-7.84974e-05
-8.66152e-05
-9.59262e-05
-0.000106914
-0.000118414
-0.000158923
-0.000124259
-0.000321731
-5.64054e-05
1.12288e-05
-1.12889e-05
-1.7681e-05
-3.329e-05
-3.6402e-05
-4.58241e-05
-5.24314e-05
-6.02478e-05
-6.85078e-05
-7.75574e-05
-8.68903e-05
-9.83552e-05
-0.000109377
-0.000126711
-0.000149307
-0.000162587
-0.000236698
-0.000235335
-0.000360649
-0.000159649
7.68798e-06
-1.38458e-05
-1.2783e-05
-1.54535e-05
-2.17213e-05
-2.99696e-05
-4.26207e-05
-5.49471e-05
-6.79072e-05
-8.07243e-05
-9.31273e-05
-0.00010721
-0.000121412
-0.000139475
-0.000170419
-0.000191535
-0.000280382
-0.000386911
-0.000443275
-0.000143333
5.16996e-05
-1.66106e-05
-2.14519e-05
-4.54399e-05
-4.337e-05
-6.06407e-05
-6.87948e-05
-8.08152e-05
-9.12765e-05
-0.000107259
-0.000111071
-0.00013952
-0.000136235
-0.000162495
-0.000215333
-0.000198095
-0.000353295
-0.000497433
-0.000459939
0.000168013
-7.18192e-05
7.21387e-06
2.15404e-05
-8.90499e-07
-2.1475e-05
-3.36081e-05
-5.24724e-05
-6.48745e-05
-8.28748e-05
-9.94299e-05
-0.000108198
-0.000126356
-0.000135783
-0.000149649
-0.000173977
-0.00019403
-0.000186844
-0.000101815
0.000339303
0.00159059
)
;

boundaryField
{
    movingWall
    {
        type            zeroGradient;
    }
    fixedWalls
    {
        type            zeroGradient;
    }
    frontAndBack
    {
        type            empty;
    }
}


// ************************************************************************* //
