/*--------------------------------*- C++ -*----------------------------------*\
| =========                 |                                                 |
| \\      /  F ield         | OpenFOAM: The Open Source CFD Toolbox           |
|  \\    /   O peration     | Version:  5.x                                   |
|   \\  /    A nd           | Web:      www.OpenFOAM.org                      |
|    \\/     M anipulation  |                                                 |
\*---------------------------------------------------------------------------*/
FoamFile
{
    version     2.0;
    format      ascii;
    class       volVectorField;
    location    "4.1";
    object      U;
}
// * * * * * * * * * * * * * * * * * * * * * * * * * * * * * * * * * * * * * //

dimensions      [0 1 -1 0 0 0 0];

internalField   nonuniform List<vector> 
400
(
(-0.000161823 0.000163108 0)
(-0.000502341 0.000174167 0)
(-0.000862921 0.000181083 0)
(-0.00123802 0.000191827 0)
(-0.00163906 0.000206625 0)
(-0.00207396 0.000225956 0)
(-0.0025526 0.000250467 0)
(-0.00308625 0.00028098 0)
(-0.00368811 0.000318469 0)
(-0.0043735 0.000363949 0)
(-0.0051599 0.000418195 0)
(-0.00606613 0.000481127 0)
(-0.00711014 0.000550549 0)
(-0.00830341 0.000619518 0)
(-0.00963802 0.000670392 0)
(-0.0110505 0.00065994 0)
(-0.0123391 0.000498505 0)
(-0.0131881 4.44106e-05 0)
(-0.0133006 -0.00109812 0)
(-0.00696216 -0.00480677 0)
(-0.000168037 0.000499341 0)
(-0.000521491 0.000532821 0)
(-0.000895096 0.000553247 0)
(-0.0012825 0.000584979 0)
(-0.00169498 0.000628679 0)
(-0.00214 0.000685773 0)
(-0.00262701 0.000758183 0)
(-0.00316681 0.000848363 0)
(-0.00377218 0.000959229 0)
(-0.00445833 0.00109391 0)
(-0.00524328 0.00125511 0)
(-0.0061481 0.00144366 0)
(-0.00719649 0.00165548 0)
(-0.00841391 0.0018753 0)
(-0.009827 0.00206323 0)
(-0.0114426 0.00211582 0)
(-0.0131581 0.00178663 0)
(-0.0149287 0.00070623 0)
(-0.0171309 -0.00225553 0)
(-0.0110243 -0.0161295 0)
(-0.000161721 0.000837161 0)
(-0.000502591 0.000893166 0)
(-0.000863106 0.000926478 0)
(-0.00123637 0.000978118 0)
(-0.00163315 0.00104914 0)
(-0.00206023 0.00114186 0)
(-0.00252637 0.00125948 0)
(-0.00304166 0.00140616 0)
(-0.00361838 0.00158705 0)
(-0.00427168 0.00180805 0)
(-0.00502066 0.00207533 0)
(-0.00589008 0.00239402 0)
(-0.00691273 0.00276525 0)
(-0.00813435 0.00318049 0)
(-0.00963438 0.00361261 0)
(-0.0115585 0.00398183 0)
(-0.0139542 0.00400172 0)
(-0.0168939 0.0030362 0)
(-0.0224377 -0.000991331 0)
(-0.0118083 -0.0352378 0)
(-0.000151741 0.00115697 0)
(-0.000472681 0.00123512 0)
(-0.000812597 0.00128054 0)
(-0.00116383 0.00135069 0)
(-0.00153637 0.00144691 0)
(-0.00193594 0.00157229 0)
(-0.00237012 0.00173123 0)
(-0.00284775 0.0019297 0)
(-0.00337986 0.00217537 0)
(-0.00398055 0.00247774 0)
(-0.0046686 0.00284829 0)
(-0.00547005 0.00330033 0)
(-0.0064223 0.00384851 0)
(-0.00757921 0.00450816 0)
(-0.00903907 0.00530135 0)
(-0.0110584 0.00626538 0)
(-0.0136991 0.00716316 0)
(-0.0149421 0.00559112 0)
(-0.0228876 -0.0021762 0)
(0.00199167 -0.0582902 0)
(-0.000138752 0.0014543 0)
(-0.000433867 0.00155424 0)
(-0.000747293 0.0016107 0)
(-0.00107036 0.00169744 0)
(-0.00141203 0.00181582 0)
(-0.00177651 0.00196952 0)
(-0.00216969 0.00216403 0)
(-0.00259843 0.00240694 0)
(-0.00307146 0.00270839 0)
(-0.00360014 0.00308154 0)
(-0.00419987 0.00354346 0)
(-0.00489233 0.00411658 0)
(-0.00570882 0.00483119 0)
(-0.00668804 0.00573023 0)
(-0.00787043 0.00687156 0)
(-0.00944592 0.00830372 0)
(-0.012158 0.00982032 0)
(-0.00949837 0.00630446 0)
(-0.018242 -0.00826591 0)
(0.0137669 -0.0627014 0)
(-0.000122965 0.00172325 0)
(-0.000386976 0.00184482 0)
(-0.000668936 0.00191134 0)
(-0.000958896 0.00201257 0)
(-0.00126452 0.00214951 0)
(-0.00158805 0.00232619 0)
(-0.00193313 0.00254883 0)
(-0.00230397 0.00282641 0)
(-0.00270606 0.00317115 0)
(-0.00314664 0.00359941 0)
(-0.00363536 0.00413318 0)
(-0.00418534 0.00480301 0)
(-0.0048143 0.00565164 0)
(-0.00554654 0.00674056 0)
(-0.00640114 0.00814974 0)
(-0.00716816 0.0096342 0)
(-0.00987798 0.01118 0)
(-0.00621922 0.0060549 0)
(-0.0123893 -0.0174133 0)
(0.00680466 -0.0600467 0)
(-0.000104353 0.00195858 0)
(-0.000332476 0.00210201 0)
(-0.000579058 0.00217791 0)
(-0.000832393 0.0022915 0)
(-0.00109868 0.00244321 0)
(-0.00137756 0.0026367 0)
(-0.00166997 0.00287873 0)
(-0.00197681 0.00317893 0)
(-0.00229947 0.00355063 0)
(-0.00263967 0.00401144 0)
(-0.00299883 0.00458455 0)
(-0.00337839 0.0053015 0)
(-0.00377903 0.00621233 0)
(-0.00418685 0.00733531 0)
(-0.0048063 0.00893544 0)
(-0.00461469 0.0101723 0)
(-0.00688478 0.0115158 0)
(-0.00346077 0.00538986 0)
(-0.00597159 -0.0226218 0)
(0.00040897 -0.0674101 0)
(-8.27544e-05 0.00215452 0)
(-0.000270475 0.00232306 0)
(-0.000478992 0.00240818 0)
(-0.000693818 0.00253428 0)
(-0.000919592 0.0026966 0)
(-0.00115291 0.00290053 0)
(-0.00139143 0.00315197 0)
(-0.00163282 0.00346169 0)
(-0.00187462 0.00384335 0)
(-0.00211427 0.00431547 0)
(-0.00234765 0.00490208 0)
(-0.00256083 0.00562644 0)
(-0.00278716 0.00658583 0)
(-0.00278655 0.00757782 0)
(-0.00330091 0.0094288 0)
(-0.00204755 0.0102112 0)
(-0.00360538 0.0112994 0)
(0.00064202 0.00434127 0)
(-0.000540916 -0.0231379 0)
(0.00565037 -0.067944 0)
(-5.49917e-05 0.00230644 0)
(-0.000197809 0.00250033 0)
(-0.00036752 0.00259587 0)
(-0.000544257 0.00273018 0)
(-0.000732876 0.00290138 0)
(-0.000922737 0.00310836 0)
(-0.00110958 0.00336082 0)
(-0.00128648 0.00366641 0)
(-0.00144731 0.00403898 0)
(-0.00158367 0.00449265 0)
(-0.00169341 0.00505609 0)
(-0.001701 0.00567706 0)
(-0.00184899 0.00665433 0)
(-0.00127887 0.00727693 0)
(-0.00187313 0.00912368 0)
(0.000244463 0.00936254 0)
(-0.00101237 0.0099606 0)
(0.0035125 0.00243632 0)
(0.00130291 -0.0236935 0)
(0.00597691 -0.0605487 0)
(-2.40335e-05 0.00239776 0)
(-0.000116831 0.0026556 0)
(-0.000248841 0.00275471 0)
(-0.00038858 0.00294195 0)
(-0.000541026 0.0031021 0)
(-0.000693415 0.00331413 0)
(-0.000833284 0.00354324 0)
(-0.000954872 0.00382805 0)
(-0.00104873 0.00417218 0)
(-0.00109677 0.00458597 0)
(-0.00116382 0.00514506 0)
(-0.000948065 0.00562976 0)
(-0.0011912 0.00670799 0)
(-0.000174287 0.00711215 0)
(-0.000918113 0.00889814 0)
(0.0017296 0.00897282 0)
(0.000223314 0.00900586 0)
(0.0048045 0.00138732 0)
(0.00104355 -0.0237339 0)
(0.00132629 -0.0601495 0)
(5.2295e-05 0.00244467 0)
(7.97854e-06 0.00271217 0)
(-8.2198e-05 0.00283722 0)
(-0.000197538 0.00295272 0)
(-0.000363427 0.00314453 0)
(-0.000484039 0.00332463 0)
(-0.000598797 0.00356978 0)
(-0.000660698 0.00383602 0)
(-0.000693917 0.00416358 0)
(-0.000615879 0.00450019 0)
(-0.000666153 0.00502976 0)
(-0.000143982 0.00531613 0)
(-0.00043391 0.0062167 0)
(0.000978241 0.00635679 0)
(0.000160952 0.00757436 0)
(0.00312886 0.00730984 0)
(0.00130412 0.00718766 0)
(0.00614019 0.000248834 0)
(0.000892512 -0.0220722 0)
(0.00369248 -0.0610596 0)
(8.03449e-05 0.00230392 0)
(0.000100525 0.00285598 0)
(-4.50793e-06 0.00300332 0)
(-8.22234e-05 0.00342872 0)
(-0.000162097 0.00351349 0)
(-0.000263861 0.00379005 0)
(-0.000315253 0.00388493 0)
(-0.000354987 0.00409788 0)
(-0.00037818 0.00431447 0)
(-0.00021835 0.00456837 0)
(-0.000336759 0.00502597 0)
(0.000284847 0.0053289 0)
(-0.000119376 0.00608225 0)
(0.00136985 0.00642655 0)
(0.000274363 0.00750784 0)
(0.0036761 0.00755581 0)
(0.000983091 0.0070318 0)
(0.00739867 0.000941948 0)
(0.000670853 -0.0195974 0)
(0.00667555 -0.05611 0)
(0.000419832 0.00234329 0)
(0.000537154 0.00291236 0)
(0.000476829 0.0029287 0)
(0.000311828 0.002894 0)
(-1.70791e-05 0.0030978 0)
(-0.000123349 0.00315171 0)
(-0.000303914 0.00340072 0)
(-0.000244113 0.00356337 0)
(-0.000240259 0.0038615 0)
(7.65276e-05 0.00407807 0)
(4.70481e-05 0.00444813 0)
(0.000869185 0.00470038 0)
(0.000504475 0.00509089 0)
(0.00237479 0.00521059 0)
(0.00112524 0.0056064 0)
(0.00481902 0.00493568 0)
(0.00173877 0.00467974 0)
(0.00768586 -0.00127556 0)
(-0.00112069 -0.0185559 0)
(0.00405988 -0.0531056 0)
(0.000508422 0.00114757 0)
(0.000391723 0.00253104 0)
(4.86593e-05 0.00320121 0)
(0.000130683 0.00425116 0)
(0.000144115 0.00422888 0)
(6.20866e-05 0.00456738 0)
(0.0001152 0.00433659 0)
(0.000129104 0.0044688 0)
(0.000162428 0.00440598 0)
(0.00040736 0.00458035 0)
(0.000334695 0.00468814 0)
(0.00101874 0.00498352 0)
(0.00050858 0.00528609 0)
(0.00215232 0.00564019 0)
(0.000309167 0.00620153 0)
(0.00432008 0.0066249 0)
(-0.000692682 0.00576819 0)
(0.0079446 0.00247439 0)
(-0.00209756 -0.0149693 0)
(0.00368846 -0.0538914 0)
(0.00156542 0.00158626 0)
(0.00230502 0.00414708 0)
(0.00179442 0.00330138 0)
(0.00102601 0.00255666 0)
(2.54835e-05 0.00276033 0)
(-0.000185246 0.00260273 0)
(-0.000502574 0.00286097 0)
(-0.000264695 0.00293013 0)
(-0.00020187 0.00315815 0)
(0.000263614 0.00332563 0)
(0.000330396 0.00355171 0)
(0.00130534 0.00381937 0)
(0.000849996 0.00390931 0)
(0.00300276 0.00427328 0)
(0.00130544 0.00375575 0)
(0.00579627 0.00374933 0)
(0.0012101 0.00185789 0)
(0.00880082 -0.0019677 0)
(-0.00472498 -0.0150604 0)
(0.00716918 -0.0536552 0)
(0.00346038 -0.00315493 0)
(0.0020361 0.0017002 0)
(0.00117968 0.00388002 0)
(0.00164373 0.00652199 0)
(0.00147385 0.00587501 0)
(0.000952769 0.00588003 0)
(0.000905865 0.00491863 0)
(0.00091987 0.00488109 0)
(0.000923319 0.00445166 0)
(0.00122715 0.00456365 0)
(0.00116086 0.00435333 0)
(0.00188545 0.00466889 0)
(0.00130727 0.0046297 0)
(0.00292088 0.00511385 0)
(0.000493474 0.0050227 0)
(0.00413661 0.00664599 0)
(-0.00222401 0.00545614 0)
(0.00960466 0.00712181 0)
(-0.00486442 -0.00896827 0)
(0.00919054 -0.051124 0)
(0.0031605 -0.00378381 0)
(0.00342982 0.00855803 0)
(-0.00421712 0.00382264 0)
(-0.00361682 0.00196826 0)
(-0.00522578 0.00271244 0)
(-0.00411041 0.00221465 0)
(-0.00353196 0.00220483 0)
(-0.00285583 0.00214704 0)
(-0.00209725 0.00222683 0)
(-0.00162815 0.0022791 0)
(-0.00089097 0.00249125 0)
(-0.000186741 0.00270164 0)
(3.61609e-05 0.0026927 0)
(0.00133816 0.00366315 0)
(0.000611254 0.00267574 0)
(0.00495911 0.00423158 0)
(-0.00200656 -0.00339874 0)
(0.0108891 -0.00192192 0)
(-0.00696556 -0.0162651 0)
(0.00893656 -0.0519327 0)
(-0.00649826 -0.0119792 0)
(0.00863374 0.00745967 0)
(0.00905325 0.00911516 0)
(0.00837036 0.0087812 0)
(0.0103855 0.00645422 0)
(0.0101791 0.00560052 0)
(0.00966274 0.00396089 0)
(0.0101627 0.00440453 0)
(0.00869461 0.00387777 0)
(0.00928856 0.00418053 0)
(0.00753013 0.0036423 0)
(0.0086941 0.00436942 0)
(0.00667732 0.00408261 0)
(0.00875454 0.00499712 0)
(0.00593346 0.00270697 0)
(0.00910064 0.00977092 0)
(0.00206414 0.00197373 0)
(0.00728837 0.011023 0)
(-0.00127949 -0.00170175 0)
(0.0116763 -0.0488667 0)
(-0.022642 -0.0040257 0)
(-0.0129924 -0.00230406 0)
(-0.0235591 0.00281873 0)
(-0.0119024 0.00107011 0)
(-0.0214955 0.00100967 0)
(-0.0115901 0.00229376 0)
(-0.0193261 0.00109868 0)
(-0.0118455 0.00282724 0)
(-0.0165565 0.00187145 0)
(-0.0118085 0.00273075 0)
(-0.0129508 0.00219644 0)
(-0.0108137 0.00264727 0)
(-0.00947328 0.00215128 0)
(-0.00806491 0.00261433 0)
(-0.00501114 0.00221184 0)
(-0.00737785 0.0065138 0)
(0.00696036 -0.0039205 0)
(-0.00455089 0.000672625 0)
(0.0167939 -0.0255615 0)
(0.0140912 -0.0476745 0)
(0.000440872 0.0181996 0)
(0.0154622 0.0118296 0)
(0.0110972 0.00659335 0)
(0.0212621 0.00637845 0)
(0.0215606 0.0059395 0)
(0.025852 0.00527168 0)
(0.030168 0.00398998 0)
(0.0295746 0.00313677 0)
(0.0357072 0.00393004 0)
(0.0359997 0.00275392 0)
(0.039748 0.002101 0)
(0.0403011 0.00227953 0)
(0.0445433 0.00253369 0)
(0.0441354 0.00145738 0)
(0.0487736 0.00161633 0)
(0.0476049 0.000973392 0)
(0.0511655 0.000366826 0)
(0.0503285 0.000277821 0)
(0.0429495 -0.00505661 0)
(0.0284243 -0.00694647 0)
)
;

boundaryField
{
    movingWall
    {
        type            fixedValue;
        value           uniform (1 0 0);
    }
    fixedWalls
    {
        type            noSlip;
    }
    frontAndBack
    {
        type            empty;
    }
}


// ************************************************************************* //
