/*--------------------------------*- C++ -*----------------------------------*\
| =========                 |                                                 |
| \\      /  F ield         | OpenFOAM: The Open Source CFD Toolbox           |
|  \\    /   O peration     | Version:  5.x                                   |
|   \\  /    A nd           | Web:      www.OpenFOAM.org                      |
|    \\/     M anipulation  |                                                 |
\*---------------------------------------------------------------------------*/
FoamFile
{
    version     2.0;
    format      ascii;
    class       volScalarField;
    location    "9.8";
    object      p;
}
// * * * * * * * * * * * * * * * * * * * * * * * * * * * * * * * * * * * * * //

dimensions      [0 2 -2 0 0 0 0];

internalField   nonuniform List<scalar> 
400
(
2.36298e-12
-0.00035156
-0.000681316
-0.000892372
-0.00100368
-0.00107291
-0.00112982
-0.00117117
-0.00115973
-0.00115291
-0.00118867
-0.00115516
-0.00112698
-0.0011497
-0.00112047
-0.00106243
-0.000978009
-0.000735667
-0.000533803
0.000347021
-0.00042965
-0.000650622
-0.000869582
-0.000994402
-0.00104263
-0.0011059
-0.00114906
-0.0011735
-0.00115761
-0.00115166
-0.0011917
-0.00116186
-0.00113971
-0.00115527
-0.00114972
-0.00108679
-0.00111619
-0.00106026
-0.00096776
-0.000375835
-0.000618428
-0.000773079
-0.00091051
-0.00101031
-0.00107055
-0.00111708
-0.00114222
-0.00115723
-0.00116811
-0.00115462
-0.00117839
-0.00115191
-0.00115339
-0.00114587
-0.0011495
-0.0011198
-0.00112766
-0.00109405
-0.00104117
-0.000772438
-0.000807343
-0.000909026
-0.00100656
-0.00108517
-0.00112835
-0.00115912
-0.00117518
-0.00117399
-0.00117835
-0.00116285
-0.00117185
-0.00115479
-0.00115243
-0.00113735
-0.00114302
-0.00111183
-0.00112742
-0.00110805
-0.00114456
-0.00101239
-0.000989665
-0.0010659
-0.00114556
-0.00119771
-0.00120589
-0.00120593
-0.00120452
-0.00118995
-0.00118767
-0.00116904
-0.00117287
-0.00115407
-0.00116063
-0.00114115
-0.00115867
-0.00113657
-0.00116338
-0.00114593
-0.00115455
-0.00107428
-0.00119261
-0.00125912
-0.00134594
-0.00137732
-0.00134626
-0.00129822
-0.00126437
-0.00122642
-0.0012076
-0.00118111
-0.00117403
-0.00115376
-0.00115355
-0.0011334
-0.00114032
-0.00111657
-0.00113531
-0.00110034
-0.00113441
-0.00110564
-0.00140236
-0.00149403
-0.00160057
-0.0016124
-0.00151731
-0.00139844
-0.00132116
-0.0012584
-0.00122406
-0.00119162
-0.00118004
-0.00115609
-0.00116555
-0.00113853
-0.00115654
-0.00113021
-0.00115746
-0.00112963
-0.00116589
-0.00111136
-0.00156195
-0.00167481
-0.00180652
-0.00181858
-0.00168704
-0.00149816
-0.00137096
-0.0012815
-0.00123341
-0.00118965
-0.00117485
-0.00114767
-0.00115155
-0.00112304
-0.00113856
-0.0011082
-0.00113193
-0.00109031
-0.00112179
-0.00110088
-0.0015995
-0.00174125
-0.00193961
-0.00197479
-0.0018081
-0.00155514
-0.00139309
-0.00129134
-0.00124021
-0.00119166
-0.00117892
-0.00114932
-0.00115552
-0.00112797
-0.0011454
-0.00111391
-0.00114642
-0.00110762
-0.00115822
-0.00110031
-0.00152148
-0.00169492
-0.0019605
-0.00199684
-0.00180897
-0.00153556
-0.00137018
-0.00126739
-0.00121495
-0.00116635
-0.00115718
-0.00112749
-0.00113601
-0.00110648
-0.00112981
-0.00109811
-0.00112661
-0.00107921
-0.00111651
-0.00108728
-0.00120847
-0.00150265
-0.00176076
-0.00183829
-0.00168068
-0.0014587
-0.00131483
-0.00123077
-0.00118532
-0.00115623
-0.00114718
-0.00112916
-0.00113612
-0.0011129
-0.00112692
-0.00109578
-0.00113464
-0.00108497
-0.00114298
-0.00108851
-0.000798873
-0.00115475
-0.00144589
-0.00157959
-0.00149124
-0.0013189
-0.00122925
-0.00119101
-0.00116165
-0.00113006
-0.00111716
-0.00110051
-0.00110296
-0.00108483
-0.0011059
-0.00108665
-0.0011262
-0.00107186
-0.00111758
-0.0010538
-0.000639739
-0.000971849
-0.00115007
-0.0012649
-0.00123457
-0.00113395
-0.00110431
-0.00113486
-0.00112158
-0.00112322
-0.00109932
-0.00110991
-0.00111532
-0.00109846
-0.00112009
-0.00106645
-0.00111301
-0.00107213
-0.00111635
-0.00104445
-0.00077867
-0.00100781
-0.000955801
-0.00101271
-0.00105581
-0.00104034
-0.00105074
-0.00105996
-0.00106294
-0.0010656
-0.0010717
-0.00108296
-0.00107634
-0.00106238
-0.00104777
-0.0010873
-0.00111109
-0.00100815
-0.00109286
-0.00106023
-0.000902066
-0.00101598
-0.000944247
-0.000965258
-0.000996911
-0.000992572
-0.00100162
-0.00101486
-0.0010478
-0.00105366
-0.00107241
-0.00110778
-0.00106361
-0.00114065
-0.00109607
-0.00112304
-0.00116603
-0.00110824
-0.00120844
-0.00110588
-0.00109339
-0.0010388
-0.000991609
-0.000985021
-0.000995995
-0.000989186
-0.00103043
-0.00101987
-0.00104228
-0.00103599
-0.00104809
-0.00104804
-0.00104846
-0.00107735
-0.00105377
-0.00105402
-0.00106936
-0.00109797
-0.00111774
-0.00106123
-0.000930969
-0.00102722
-0.00100273
-0.000956965
-0.000974363
-0.000976216
-0.000991472
-0.000986608
-0.00103741
-0.00101916
-0.00107779
-0.00105954
-0.00106297
-0.00110558
-0.00104208
-0.00115164
-0.00122522
-0.00107916
-0.00119596
-0.000950653
-0.00089528
-0.00102823
-0.000988494
-0.000970065
-0.000965741
-0.000976606
-0.000990783
-0.00100523
-0.00102251
-0.0010298
-0.00104795
-0.00101705
-0.00105591
-0.00105104
-0.00106635
-0.0011799
-0.00111728
-0.000914085
-0.000937091
-0.000748365
-0.000851206
-0.000969265
-0.000994394
-0.00098264
-0.000951355
-0.00096406
-0.000984068
-0.000989271
-0.00101767
-0.00102517
-0.00106385
-0.00103642
-0.00109925
-0.00104748
-0.00110092
-0.00112761
-0.00105175
-0.00122108
-0.000937885
-0.000516605
-0.000996035
-0.000961688
-0.000923119
-0.000951823
-0.000944253
-0.000975857
-0.000969097
-0.000993559
-0.00101675
-0.00102031
-0.0010237
-0.00102847
-0.00102174
-0.00100384
-0.00105504
-0.00107154
-0.00104808
-0.000827393
-0.00033922
0.000956873
)
;

boundaryField
{
    movingWall
    {
        type            zeroGradient;
    }
    fixedWalls
    {
        type            zeroGradient;
    }
    frontAndBack
    {
        type            empty;
    }
}


// ************************************************************************* //
