/*--------------------------------*- C++ -*----------------------------------*\
| =========                 |                                                 |
| \\      /  F ield         | OpenFOAM: The Open Source CFD Toolbox           |
|  \\    /   O peration     | Version:  5.x                                   |
|   \\  /    A nd           | Web:      www.OpenFOAM.org                      |
|    \\/     M anipulation  |                                                 |
\*---------------------------------------------------------------------------*/
FoamFile
{
    version     2.0;
    format      ascii;
    class       surfaceScalarField;
    location    "9.8";
    object      phi;
}
// * * * * * * * * * * * * * * * * * * * * * * * * * * * * * * * * * * * * * //

dimensions      [0 3 -1 0 0 0 0];

internalField   nonuniform List<scalar> 
760
(
-9.13672e-07
9.13672e-07
-1.59234e-06
6.78667e-07
-1.98147e-06
3.89131e-07
-2.12158e-06
1.40109e-07
-2.2194e-06
9.78236e-08
-2.30095e-06
8.1544e-08
-2.3571e-06
5.61577e-08
-2.36782e-06
1.07135e-08
-2.34513e-06
-2.26852e-08
-2.38959e-06
4.44532e-08
-2.42157e-06
3.19832e-08
-2.33953e-06
-8.20412e-08
-2.39694e-06
5.74138e-08
-2.37751e-06
-1.94271e-08
-2.33621e-06
-4.13033e-08
-2.28985e-06
-4.63581e-08
-2.19785e-06
-9.20031e-08
-1.86291e-06
-3.34945e-07
-1.22326e-06
-6.39649e-07
-1.22326e-06
-4.46319e-07
1.35999e-06
-6.8482e-07
9.17169e-07
-8.05071e-07
5.09381e-07
-9.21484e-07
2.56522e-07
-9.4351e-07
1.1985e-07
-9.47422e-07
8.54565e-08
-9.47316e-07
5.60509e-08
-9.78475e-07
4.18732e-08
-1.01213e-06
1.09727e-08
-9.87361e-07
1.9681e-08
-9.76339e-07
2.09613e-08
-1.00972e-06
-4.86564e-08
-9.78166e-07
2.58558e-08
-9.42063e-07
-5.55306e-08
-9.6862e-07
-1.47459e-08
-9.31943e-07
-8.30348e-08
-9.91645e-07
-3.23016e-08
-1.04696e-06
-2.79632e-07
-9.14911e-07
-7.71694e-07
-2.13817e-06
-3.38854e-07
1.69885e-06
-5.27657e-07
1.10597e-06
-6.12117e-07
5.93841e-07
-6.10394e-07
2.54799e-07
-5.46945e-07
5.64011e-08
-4.96051e-07
3.45627e-08
-4.1961e-07
-2.03909e-08
-3.45917e-07
-3.18197e-08
-2.96594e-07
-3.83503e-08
-2.50294e-07
-2.6619e-08
-2.05813e-07
-2.352e-08
-2.01583e-07
-5.28856e-08
-1.57197e-07
-1.85305e-08
-1.52872e-07
-5.98556e-08
-1.3586e-07
-3.17576e-08
-1.1995e-07
-9.89454e-08
-1.34218e-07
-1.80335e-08
-1.21285e-07
-2.92566e-07
-2.13561e-07
-6.79418e-07
-2.35173e-06
-2.63944e-07
1.96279e-06
-4.74473e-07
1.3165e-06
-6.18839e-07
7.38207e-07
-6.0957e-07
2.4553e-07
-5.31939e-07
-2.12299e-08
-4.46644e-07
-5.0732e-08
-3.50171e-07
-1.16865e-07
-2.71821e-07
-1.1017e-07
-2.1212e-07
-9.80508e-08
-1.51458e-07
-8.7281e-08
-1.18552e-07
-5.64258e-08
-9.71371e-08
-7.4301e-08
-1.00995e-07
-1.46722e-08
-9.91773e-08
-6.16737e-08
-1.55203e-07
2.42678e-08
-1.71627e-07
-8.25212e-08
-1.92293e-07
2.63238e-09
-2.3308e-07
-2.51778e-07
-1.95687e-07
-7.1681e-07
-2.54742e-06
-2.82681e-07
2.24547e-06
-5.63364e-07
1.59718e-06
-7.2723e-07
9.02073e-07
-7.24408e-07
2.42708e-07
-6.16256e-07
-1.29382e-07
-4.78678e-07
-1.8831e-07
-3.76788e-07
-2.18754e-07
-2.92188e-07
-1.9477e-07
-2.24384e-07
-1.65855e-07
-1.62848e-07
-1.48818e-07
-1.10677e-07
-1.08596e-07
-6.86129e-08
-1.16365e-07
-2.57139e-08
-5.75713e-08
1.64607e-08
-1.03848e-07
5.04091e-08
-9.68069e-09
1.00655e-07
-1.32767e-07
9.29408e-08
1.03464e-08
4.86528e-08
-2.0749e-07
-4.36541e-09
-6.63792e-07
-2.55178e-06
-2.61655e-07
2.50713e-06
-5.43375e-07
1.8789e-06
-7.33129e-07
1.09183e-06
-7.49353e-07
2.58932e-07
-6.17405e-07
-2.6133e-07
-4.41654e-07
-3.64061e-07
-3.09601e-07
-3.50807e-07
-2.10165e-07
-2.94206e-07
-1.42419e-07
-2.33601e-07
-9.34464e-08
-1.9779e-07
-6.76598e-08
-1.34383e-07
-4.75948e-08
-1.3643e-07
-4.09697e-08
-6.41965e-08
-3.93474e-08
-1.0547e-07
-3.01261e-08
-1.89021e-08
-5.45524e-08
-1.08341e-07
-2.9451e-08
-1.4755e-08
-1.94141e-08
-2.17527e-07
-1.65215e-08
-6.66685e-07
-2.5683e-06
-2.61049e-07
2.76817e-06
-4.50422e-07
2.06828e-06
-6.57238e-07
1.29864e-06
-6.91624e-07
2.93319e-07
-5.66392e-07
-3.86562e-07
-3.94469e-07
-5.35984e-07
-2.69586e-07
-4.7569e-07
-1.79316e-07
-3.84476e-07
-1.10043e-07
-3.02873e-07
-6.55334e-08
-2.423e-07
-2.12412e-08
-1.78675e-07
6.77106e-10
-1.58349e-07
2.9651e-08
-9.31703e-08
4.87694e-08
-1.24589e-07
5.70332e-08
-2.71659e-08
7.12897e-08
-1.22597e-07
5.41157e-08
2.41907e-09
1.36968e-08
-1.77108e-07
-1.46629e-08
-6.38325e-07
-2.58297e-06
-5.99708e-08
2.82815e-06
-2.07187e-07
2.21549e-06
-3.84457e-07
1.47591e-06
-4.44346e-07
3.53208e-07
-3.86593e-07
-4.44314e-07
-2.53867e-07
-6.68711e-07
-1.52935e-07
-5.76622e-07
-9.80529e-08
-4.39358e-07
-5.65264e-08
-3.444e-07
-3.6699e-08
-2.62127e-07
-1.401e-08
-2.01364e-07
-1.37203e-08
-1.58638e-07
3.52935e-09
-1.1042e-07
-6.42752e-09
-1.14632e-07
1.35927e-08
-4.71861e-08
-4.95446e-09
-1.0405e-07
7.72559e-09
-1.0261e-08
2.07578e-08
-1.90141e-07
2.70492e-08
-6.44616e-07
-2.55592e-06
5.76228e-08
2.77052e-06
-3.1617e-08
2.30473e-06
-6.70009e-08
1.5113e-06
-1.22164e-07
4.08371e-07
-9.78107e-08
-4.68667e-07
-2.86909e-08
-7.3783e-07
4.06043e-08
-6.45918e-07
7.44411e-08
-4.73195e-07
8.59414e-08
-3.559e-07
8.50828e-08
-2.61269e-07
8.45613e-08
-2.00843e-07
8.10388e-08
-1.55116e-07
8.21502e-08
-1.11531e-07
7.14368e-08
-1.03919e-07
6.52474e-08
-4.09967e-08
5.99036e-08
-9.87061e-08
4.37744e-08
5.86832e-09
-1.80508e-09
-1.44561e-07
-3.95056e-08
-6.06916e-07
-2.59542e-06
2.07366e-07
2.56316e-06
3.39223e-07
2.17287e-06
3.77445e-07
1.47308e-06
3.70998e-07
4.14818e-07
3.4099e-07
-4.38659e-07
2.63339e-07
-6.6018e-07
1.57227e-07
-5.39806e-07
9.40516e-08
-4.1002e-07
7.90541e-08
-3.40903e-07
7.17779e-08
-2.53992e-07
6.50394e-08
-1.94104e-07
4.17701e-08
-1.31846e-07
4.84048e-08
-1.18166e-07
2.39334e-08
-7.94472e-08
5.88125e-08
-7.58758e-08
7.92258e-08
-1.19119e-07
4.82934e-08
3.68007e-08
4.34155e-08
-1.39683e-07
3.67638e-08
-6.00264e-07
-2.55866e-06
4.66208e-07
2.09695e-06
7.94377e-07
1.84471e-06
8.41645e-07
1.42581e-06
7.8709e-07
4.69373e-07
6.82921e-07
-3.3449e-07
6.63947e-07
-6.41205e-07
6.37346e-07
-5.13204e-07
5.07375e-07
-2.80048e-07
3.45421e-07
-1.78949e-07
2.18857e-07
-1.27427e-07
1.70187e-07
-1.45435e-07
1.38513e-07
-1.00172e-07
1.22336e-07
-1.01989e-07
1.06408e-07
-6.3519e-08
7.13109e-08
-4.07788e-08
1.01188e-08
-5.79272e-08
2.38472e-08
2.30723e-08
-9.46852e-09
-1.06368e-07
-5.94073e-08
-5.50325e-07
-2.61807e-06
9.66236e-07
1.13071e-06
1.2126e-06
1.59834e-06
1.2506e-06
1.38781e-06
1.13805e-06
5.81925e-07
8.52279e-07
-4.87235e-08
6.47614e-07
-4.3654e-07
5.81734e-07
-4.47324e-07
5.34478e-07
-2.32793e-07
4.15086e-07
-5.95571e-08
3.05242e-07
-1.75841e-08
1.96118e-07
-3.63106e-08
1.2473e-07
-2.87847e-08
5.55042e-08
-3.27631e-08
-4.69154e-08
3.89006e-08
4.25733e-08
-1.30267e-07
-1.76202e-08
2.26633e-09
1.80266e-08
-1.25745e-08
8.08156e-08
-1.69157e-07
2.21675e-08
-4.91677e-07
-2.5959e-06
9.31668e-07
1.99045e-07
1.30405e-06
1.22597e-06
1.57952e-06
1.11233e-06
1.61042e-06
5.51029e-07
1.29342e-06
2.6827e-07
7.17284e-07
1.39598e-07
2.55901e-07
1.40594e-08
6.60702e-08
-4.29622e-08
6.21697e-08
-5.56566e-08
4.23764e-08
2.20922e-09
1.11479e-07
-1.05413e-07
7.51066e-09
7.51837e-08
1.07891e-07
-1.33144e-07
8.13086e-08
6.54834e-08
6.45979e-08
-1.13557e-07
4.7654e-08
1.92102e-08
7.67516e-08
-4.16721e-08
1.1024e-07
-2.02645e-07
-1.73647e-08
-3.64073e-07
-2.61326e-06
4.75127e-07
-2.76082e-07
8.81159e-07
8.19932e-07
1.21158e-06
7.81911e-07
1.29157e-06
4.71046e-07
1.23699e-06
3.2285e-07
1.10655e-06
2.7003e-07
9.76708e-07
1.43905e-07
8.39699e-07
9.40471e-08
7.61321e-07
2.27212e-08
6.61618e-07
1.01912e-07
5.99695e-07
-4.34903e-08
5.30204e-07
1.44675e-07
3.71178e-07
2.58823e-08
2.68277e-07
1.68384e-07
-1.11018e-07
2.65739e-07
-4.10168e-07
3.1836e-07
-1.99501e-07
-2.52339e-07
-9.53695e-08
-3.06776e-07
1.71453e-08
-4.76588e-07
-2.59612e-06
3.0524e-07
-5.81322e-07
6.90263e-07
4.34909e-07
7.58781e-07
7.13392e-07
6.56344e-07
5.73483e-07
5.10446e-07
4.68747e-07
4.42689e-07
3.37787e-07
2.99416e-07
2.87178e-07
2.24939e-07
1.68525e-07
4.82363e-08
1.99423e-07
6.24904e-09
1.43899e-07
-1.4925e-07
1.12009e-07
-1.66181e-07
1.61606e-07
-1.8177e-07
4.14705e-08
-2.59207e-07
2.45821e-07
1.77271e-08
-1.11953e-08
1.40158e-07
1.9593e-07
6.10353e-08
-1.73217e-07
-2.37311e-07
-8.42952e-09
-8.55535e-08
-6.28345e-07
-2.68167e-06
8.09287e-08
-6.62251e-07
2.89737e-07
2.26101e-07
4.3045e-07
5.7268e-07
5.83308e-07
4.20624e-07
5.79027e-07
4.73028e-07
6.48224e-07
2.68591e-07
6.01127e-07
3.34275e-07
5.67389e-07
2.02262e-07
5.18242e-07
2.48571e-07
4.79828e-07
1.82313e-07
4.5718e-07
1.34657e-07
3.39062e-07
2.79724e-07
3.97842e-07
-1.73096e-08
3.32376e-07
3.11287e-07
2.72768e-07
4.84134e-08
4.37488e-07
3.12088e-08
3.79769e-07
-1.15498e-07
6.51704e-08
3.06169e-07
7.9599e-08
-6.42774e-07
-2.60207e-06
-2.31384e-07
-4.30867e-07
-4.81735e-07
4.76452e-07
-2.59262e-07
3.50206e-07
-1.65692e-07
3.27055e-07
-1.14507e-07
4.21843e-07
-8.63004e-08
2.40384e-07
-1.06547e-08
2.5863e-07
-5.46843e-08
2.46292e-07
2.24415e-08
1.71445e-07
1.2972e-09
2.03457e-07
4.69247e-09
1.31262e-07
1.17502e-07
1.66915e-07
-2.77383e-08
1.27931e-07
4.97985e-08
2.3375e-07
-4.15222e-08
1.39734e-07
-3.21091e-07
3.10777e-07
1.10547e-07
-5.47135e-07
2.96836e-07
1.1988e-07
5.21977e-08
-3.98136e-07
-2.54988e-06
-7.54116e-08
-3.55455e-07
2.26465e-07
1.74576e-07
3.11261e-07
2.6541e-07
3.44116e-07
2.942e-07
4.55892e-07
3.10067e-07
4.94295e-07
2.01981e-07
5.50167e-07
2.02757e-07
6.01326e-07
1.95133e-07
6.12143e-07
1.60628e-07
6.60703e-07
1.54897e-07
6.19325e-07
1.72639e-07
6.23167e-07
1.63073e-07
6.55493e-07
9.56041e-08
5.34615e-07
3.54629e-07
7.30604e-07
-5.62551e-08
6.38397e-07
4.02985e-07
4.029e-07
-3.11639e-07
2.94025e-07
2.28755e-07
2.59713e-07
-3.63824e-07
-2.29016e-06
-7.37256e-07
3.81801e-07
-8.35724e-07
2.73044e-07
-8.29933e-07
2.59619e-07
-7.1746e-07
1.81727e-07
-6.08882e-07
2.01489e-07
-5.7205e-07
1.65149e-07
-5.245e-07
1.55207e-07
-4.68934e-07
1.39567e-07
-4.41161e-07
1.32855e-07
-4.03293e-07
1.1703e-07
-3.36721e-07
1.06067e-07
-2.80719e-07
1.07071e-07
-2.37349e-07
5.22346e-08
-6.11459e-08
1.78426e-07
-1.84495e-07
6.70942e-08
7.94777e-08
1.39012e-07
-2.21764e-07
-1.0397e-08
8.40728e-08
-7.70818e-08
7.27799e-07
-1.00755e-06
-1.56236e-06
3.81801e-07
6.54845e-07
9.14464e-07
1.09619e-06
1.29768e-06
1.46283e-06
1.61804e-06
1.7576e-06
1.89046e-06
2.00749e-06
2.11355e-06
2.22063e-06
2.27286e-06
2.45129e-06
2.51838e-06
2.65739e-06
2.64699e-06
2.56991e-06
1.56236e-06
)
;

boundaryField
{
    movingWall
    {
        type            calculated;
        value           uniform 0;
    }
    fixedWalls
    {
        type            calculated;
        value           uniform 0;
    }
    frontAndBack
    {
        type            empty;
        value           nonuniform 0();
    }
}


// ************************************************************************* //
