/*--------------------------------*- C++ -*----------------------------------*\
| =========                 |                                                 |
| \\      /  F ield         | OpenFOAM: The Open Source CFD Toolbox           |
|  \\    /   O peration     | Version:  5.x                                   |
|   \\  /    A nd           | Web:      www.OpenFOAM.org                      |
|    \\/     M anipulation  |                                                 |
\*---------------------------------------------------------------------------*/
FoamFile
{
    version     2.0;
    format      ascii;
    class       volVectorField;
    location    "3.7";
    object      U;
}
// * * * * * * * * * * * * * * * * * * * * * * * * * * * * * * * * * * * * * //

dimensions      [0 1 -1 0 0 0 0];

internalField   nonuniform List<vector> 
400
(
(-0.000143724 0.000144309 0)
(-0.000443657 0.00015258 0)
(-0.000757672 0.00015668 0)
(-0.00107978 0.000162847 0)
(-0.00141648 0.000170968 0)
(-0.00177126 0.000180934 0)
(-0.00214772 0.000192536 0)
(-0.00254883 0.000205376 0)
(-0.00297648 0.000218724 0)
(-0.00343061 0.000231275 0)
(-0.00390776 0.000240797 0)
(-0.00439868 0.000243577 0)
(-0.00488483 0.000233647 0)
(-0.00533335 0.000201809 0)
(-0.00569003 0.000134692 0)
(-0.00587132 1.40781e-05 0)
(-0.00574165 -0.000181261 0)
(-0.00510869 -0.000474644 0)
(-0.00380924 -0.000855135 0)
(-0.00149279 -0.00132652 0)
(-0.000149071 0.000441218 0)
(-0.000460142 0.000466311 0)
(-0.000785509 0.00047844 0)
(-0.00111866 0.000496699 0)
(-0.00146616 0.00052077 0)
(-0.00183146 0.000550372 0)
(-0.00221827 0.000584934 0)
(-0.00262985 0.000623358 0)
(-0.00306873 0.000663596 0)
(-0.00353602 0.000701986 0)
(-0.0040302 0.000732219 0)
(-0.00454525 0.000743766 0)
(-0.00506746 0.000719578 0)
(-0.00557066 0.000632939 0)
(-0.00600884 0.000443825 0)
(-0.00630556 9.55524e-05 0)
(-0.00633001 -0.000482055 0)
(-0.00586218 -0.00137349 0)
(-0.00472798 -0.00259424 0)
(-0.00202921 -0.00434535 0)
(-0.000145217 0.000741032 0)
(-0.000448869 0.000783292 0)
(-0.000766986 0.000803406 0)
(-0.00109292 0.000833692 0)
(-0.00143346 0.000873693 0)
(-0.00179227 0.000923089 0)
(-0.00217357 0.00098119 0)
(-0.00258155 0.0010466 0)
(-0.00302036 0.0011166 0)
(-0.00349382 0.0011862 0)
(-0.00400485 0.00124655 0)
(-0.0045544 0.00128257 0)
(-0.00513945 0.00126919 0)
(-0.0057494 0.00116577 0)
(-0.00635926 0.000908061 0)
(-0.00691492 0.000397147 0)
(-0.0073087 -0.000507879 0)
(-0.00730958 -0.00198384 0)
(-0.00683209 -0.00424798 0)
(-0.00352111 -0.00849104 0)
(-0.000138956 0.00102952 0)
(-0.000430477 0.00108913 0)
(-0.000736718 0.00111741 0)
(-0.00105082 0.00115999 0)
(-0.00137984 0.00121636 0)
(-0.00172761 0.00128636 0)
(-0.00209889 0.00136953 0)
(-0.00249894 0.00146483 0)
(-0.00293387 0.00156987 0)
(-0.00341087 0.00167991 0)
(-0.00393849 0.0017861 0)
(-0.0045269 0.00187266 0)
(-0.00518796 0.0019123 0)
(-0.00593474 0.00185864 0)
(-0.00677964 0.00163357 0)
(-0.00772297 0.00110215 0)
(-0.00871482 2.62282e-05 0)
(-0.00963989 -0.00188314 0)
(-0.0108244 -0.00523429 0)
(-0.00712783 -0.0149193 0)
(-0.000130534 0.00130383 0)
(-0.000405756 0.0013811 0)
(-0.000696039 0.0014177 0)
(-0.000994154 0.00147276 0)
(-0.00130735 0.00154574 0)
(-0.0016394 0.00163687 0)
(-0.00199544 0.00174635 0)
(-0.00238158 0.00187415 0)
(-0.00280567 0.00201931 0)
(-0.00327801 0.0021791 0)
(-0.00381256 0.00234746 0)
(-0.00442871 0.0025126 0)
(-0.00515412 0.00265273 0)
(-0.00602923 0.00272873 0)
(-0.00711843 0.0026721 0)
(-0.00852928 0.0023556 0)
(-0.0103173 0.00148192 0)
(-0.0125633 -0.000397146 0)
(-0.0168252 -0.00427882 0)
(-0.0119341 -0.026565 0)
(-0.000119878 0.00155957 0)
(-0.000374578 0.001655 0)
(-0.000644864 0.00170012 0)
(-0.000922887 0.00176773 0)
(-0.00121587 0.00185724 0)
(-0.00152718 0.0019694 0)
(-0.00186183 0.00210546 0)
(-0.00222625 0.002267 0)
(-0.00262924 0.00245553 0)
(-0.0030831 0.00267197 0)
(-0.00360547 0.00291582 0)
(-0.0042223 0.00318402 0)
(-0.00497287 0.00346891 0)
(-0.00591735 0.00375484 0)
(-0.00715761 0.00401594 0)
(-0.00892827 0.0042209 0)
(-0.0114253 0.00418983 0)
(-0.0139237 0.00255868 0)
(-0.0211119 -0.00263623 0)
(-0.00693376 -0.0477465 0)
(-0.000106795 0.00179231 0)
(-0.000336646 0.00190669 0)
(-0.000583071 0.00196068 0)
(-0.000837164 0.00204081 0)
(-0.00110585 0.00214626 0)
(-0.0013914 0.00227837 0)
(-0.00169811 0.00243967 0)
(-0.00203185 0.00263379 0)
(-0.00240113 0.00286532 0)
(-0.00281827 0.00313964 0)
(-0.0033012 0.00346307 0)
(-0.0038765 0.00384329 0)
(-0.00458453 0.00429048 0)
(-0.00548431 0.00482044 0)
(-0.00665295 0.00546023 0)
(-0.008298 0.00625752 0)
(-0.0110587 0.00731176 0)
(-0.0103549 0.00462317 0)
(-0.019233 -0.00494656 0)
(0.00849724 -0.0630667 0)
(-9.09397e-05 0.00199698 0)
(-0.000291415 0.00213258 0)
(-0.000510506 0.00219599 0)
(-0.00073746 0.00228911 0)
(-0.000978513 0.00240915 0)
(-0.00123403 0.00255885 0)
(-0.00150674 0.00274191 0)
(-0.00180104 0.00296442 0)
(-0.00212397 0.00323428 0)
(-0.00248614 0.00356178 0)
(-0.00290298 0.00396069 0)
(-0.00339678 0.00445062 0)
(-0.00399926 0.00506035 0)
(-0.00475465 0.00583502 0)
(-0.00571 0.00684686 0)
(-0.00664569 0.00789697 0)
(-0.0096668 0.00947968 0)
(-0.00582307 0.0050224 0)
(-0.0144291 -0.0115981 0)
(0.0117609 -0.0604815 0)
(-7.06096e-05 0.00216882 0)
(-0.000236889 0.00232728 0)
(-0.000426336 0.00240145 0)
(-0.000624186 0.00250664 0)
(-0.000836371 0.00264026 0)
(-0.00105897 0.00280386 0)
(-0.00129297 0.00300361 0)
(-0.00154004 0.00324708 0)
(-0.00180454 0.00354511 0)
(-0.00209297 0.00391097 0)
(-0.00241406 0.0043621 0)
(-0.00277963 0.00492223 0)
(-0.00320492 0.00563091 0)
(-0.0036995 0.00649984 0)
(-0.00452279 0.00779724 0)
(-0.00453151 0.0086872 0)
(-0.00762236 0.0102581 0)
(-0.00362519 0.00466545 0)
(-0.00933761 -0.0188086 0)
(0.00329002 -0.0620994 0)
(-4.62449e-05 0.00229506 0)
(-0.000172677 0.00249986 0)
(-0.000330974 0.00258076 0)
(-0.000498885 0.00271689 0)
(-0.000681363 0.00285383 0)
(-0.000870894 0.00302719 0)
(-0.00106382 0.00323067 0)
(-0.00126004 0.00348303 0)
(-0.00146081 0.00379573 0)
(-0.00167017 0.0041863 0)
(-0.00189322 0.00467653 0)
(-0.00213003 0.00529025 0)
(-0.00242663 0.00611579 0)
(-0.00256436 0.00697053 0)
(-0.00338419 0.00868283 0)
(-0.00234731 0.00928834 0)
(-0.00508532 0.0107957 0)
(-0.0007098 0.00415974 0)
(-0.00445192 -0.0208966 0)
(0.00341523 -0.068349 0)
(6.403e-06 0.00238343 0)
(-7.92382e-05 0.00260149 0)
(-0.000209526 0.00270639 0)
(-0.000351463 0.0028144 0)
(-0.000527292 0.00297741 0)
(-0.000683202 0.00315071 0)
(-0.000838444 0.00337042 0)
(-0.000976344 0.00362869 0)
(-0.00110308 0.00394546 0)
(-0.00121498 0.00433256 0)
(-0.00131555 0.00481867 0)
(-0.00134771 0.0053638 0)
(-0.00154759 0.00622382 0)
(-0.0010915 0.00678642 0)
(-0.00202819 0.0085303 0)
(2.0497e-05 0.00871246 0)
(-0.00256344 0.00981933 0)
(0.00265554 0.00291321 0)
(-0.00132178 -0.0211724 0)
(0.00752413 -0.0644911 0)
(2.96699e-05 0.0023417 0)
(2.63128e-06 0.00280197 0)
(-0.000116373 0.00287712 0)
(-0.000228698 0.00321282 0)
(-0.000341716 0.00328662 0)
(-0.00047593 0.00350403 0)
(-0.000583021 0.00363833 0)
(-0.000682929 0.00385697 0)
(-0.000754976 0.00412108 0)
(-0.000794246 0.00447781 0)
(-0.000858392 0.00497392 0)
(-0.000706476 0.00545671 0)
(-0.000995615 0.00648315 0)
(-0.000113328 0.00701141 0)
(-0.00122605 0.00883257 0)
(0.00153913 0.00924438 0)
(-0.00096506 0.00955668 0)
(0.00468342 0.00279971 0)
(-0.000536347 -0.0217859 0)
(0.0042734 -0.0605003 0)
(0.00030799 0.00241696 0)
(0.000306791 0.00271295 0)
(0.000194251 0.00283535 0)
(5.8217e-05 0.00282108 0)
(-0.000245068 0.00302681 0)
(-0.000337577 0.00312448 0)
(-0.000493201 0.00336551 0)
(-0.000501026 0.00359374 0)
(-0.000491219 0.00390903 0)
(-0.000373488 0.00422744 0)
(-0.000360935 0.00471997 0)
(0.000136218 0.0050608 0)
(-9.20462e-05 0.00583757 0)
(0.00126791 0.00616212 0)
(0.000245779 0.00714126 0)
(0.00338441 0.00737933 0)
(0.000837832 0.00703149 0)
(0.00605227 0.00104956 0)
(-0.000438254 -0.0215729 0)
(0.00319042 -0.0621838 0)
(0.00018846 0.00153725 0)
(0.000199556 0.00283184 0)
(3.01867e-05 0.00319498 0)
(-2.49506e-05 0.00400864 0)
(-1.50422e-05 0.00392306 0)
(-0.000127017 0.00422903 0)
(-0.00010155 0.0040976 0)
(-0.000126004 0.00426262 0)
(-0.00010499 0.0043276 0)
(3.9871e-05 0.00458004 0)
(6.28417e-06 0.00489919 0)
(0.000476427 0.00533017 0)
(0.000195601 0.00594803 0)
(0.00143568 0.00663586 0)
(0.000343126 0.00763524 0)
(0.0036508 0.00866564 0)
(0.000479357 0.00782444 0)
(0.00803406 0.00349727 0)
(8.71713e-05 -0.0186652 0)
(0.0074314 -0.059444 0)
(0.00127356 0.00225366 0)
(0.00176362 0.00346673 0)
(0.00115642 0.00303087 0)
(0.000646981 0.00253392 0)
(-0.000157347 0.00274796 0)
(-0.000238865 0.00265546 0)
(-0.000510586 0.00292411 0)
(-0.00031479 0.0030514 0)
(-0.000214994 0.00335501 0)
(0.000144151 0.00360233 0)
(0.000306442 0.00397883 0)
(0.00107202 0.0043536 0)
(0.000952462 0.00468963 0)
(0.00272745 0.00524234 0)
(0.00178726 0.00507402 0)
(0.00550297 0.0054906 0)
(0.00263546 0.00354758 0)
(0.00897808 -0.000879053 0)
(-0.0017408 -0.0186566 0)
(0.00745787 -0.0549064 0)
(0.00182734 -0.00187538 0)
(0.00107471 0.00227591 0)
(0.000702947 0.00392717 0)
(0.000800306 0.00582923 0)
(0.000794693 0.00522882 0)
(0.000477381 0.00534291 0)
(0.000563025 0.00464707 0)
(0.000573868 0.00469371 0)
(0.000656141 0.00437301 0)
(0.000899048 0.00459529 0)
(0.000962449 0.00457422 0)
(0.00149509 0.00492827 0)
(0.00137759 0.00512134 0)
(0.00254724 0.00574281 0)
(0.00134022 0.00608892 0)
(0.00444555 0.00781165 0)
(-0.00013424 0.00654443 0)
(0.00999411 0.00681795 0)
(-0.00223256 -0.0138796 0)
(0.00635932 -0.0538414 0)
(0.00328781 -0.000594688 0)
(0.00342407 0.00645946 0)
(-0.00242804 0.00364655 0)
(-0.00269529 0.00207595 0)
(-0.00385436 0.00240228 0)
(-0.00299734 0.00203501 0)
(-0.00265108 0.00212762 0)
(-0.00201689 0.00218277 0)
(-0.00139565 0.00241747 0)
(-0.000846496 0.00254072 0)
(-0.000255856 0.00290695 0)
(0.000440492 0.0031518 0)
(0.000799999 0.00337882 0)
(0.00214535 0.00414543 0)
(0.00196641 0.0032615 0)
(0.00539315 0.00466082 0)
(0.0012993 -0.00190711 0)
(0.0110155 -0.00152369 0)
(-0.00458346 -0.0168504 0)
(0.00869275 -0.0541944 0)
(-0.00315513 -0.0101152 0)
(0.00777041 0.00631567 0)
(0.00943308 0.00840327 0)
(0.00826596 0.00825328 0)
(0.00945448 0.00577714 0)
(0.00891845 0.00532936 0)
(0.00830135 0.00406056 0)
(0.00814866 0.00461689 0)
(0.00691317 0.00372079 0)
(0.00740301 0.004235 0)
(0.00594217 0.0040667 0)
(0.00695567 0.00444095 0)
(0.00563712 0.00435125 0)
(0.00719913 0.00490694 0)
(0.00574303 0.00426769 0)
(0.00712717 0.00893005 0)
(0.00351616 0.00374856 0)
(0.00758266 0.0113204 0)
(-0.000190759 -0.0051379 0)
(0.0127001 -0.049787 0)
(-0.0217178 -0.00400936 0)
(-0.0118189 -0.00181774 0)
(-0.0232066 0.00214009 0)
(-0.0118284 0.00196437 0)
(-0.020814 0.0012841 0)
(-0.0118341 0.00266924 0)
(-0.0180076 0.00170478 0)
(-0.0126111 0.00296746 0)
(-0.0146945 0.00205655 0)
(-0.0122534 0.0028124 0)
(-0.0114914 0.00245151 0)
(-0.0107509 0.00257971 0)
(-0.00834314 0.00241405 0)
(-0.00789637 0.0027346 0)
(-0.0042458 0.0026574 0)
(-0.0053105 0.00541078 0)
(0.00606598 -0.00438742 0)
(-0.000978082 0.000749909 0)
(0.0156748 -0.0263129 0)
(0.0149918 -0.0482853 0)
(0.0015828 0.0183725 0)
(0.0149828 0.0112713 0)
(0.0110221 0.00719643 0)
(0.0214148 0.00682887 0)
(0.0217002 0.00569173 0)
(0.0274548 0.00432638 0)
(0.0277992 0.00416018 0)
(0.0324135 0.00403274 0)
(0.0362058 0.00289399 0)
(0.0352476 0.0024949 0)
(0.0415135 0.0031483 0)
(0.0415046 0.00232915 0)
(0.0447497 0.00191188 0)
(0.045997 0.00208838 0)
(0.0495195 0.00205097 0)
(0.0492178 0.000947768 0)
(0.0521465 0.000900842 0)
(0.0514642 0.000431764 0)
(0.0443514 -0.0051481 0)
(0.028909 -0.00776218 0)
)
;

boundaryField
{
    movingWall
    {
        type            fixedValue;
        value           uniform (1 0 0);
    }
    fixedWalls
    {
        type            noSlip;
    }
    frontAndBack
    {
        type            empty;
    }
}


// ************************************************************************* //
