/*--------------------------------*- C++ -*----------------------------------*\
| =========                 |                                                 |
| \\      /  F ield         | OpenFOAM: The Open Source CFD Toolbox           |
|  \\    /   O peration     | Version:  5.x                                   |
|   \\  /    A nd           | Web:      www.OpenFOAM.org                      |
|    \\/     M anipulation  |                                                 |
\*---------------------------------------------------------------------------*/
FoamFile
{
    version     2.0;
    format      ascii;
    class       volVectorField;
    location    "16.1";
    object      U;
}
// * * * * * * * * * * * * * * * * * * * * * * * * * * * * * * * * * * * * * //

dimensions      [0 1 -1 0 0 0 0];

internalField   nonuniform List<vector> 
400
(
(-0.0140665 0.0071092 0)
(-0.0333551 0.00797626 0)
(-0.042215 0.0032934 0)
(-0.0484105 0.00235188 0)
(-0.0505164 0.000918997 0)
(-0.0545467 0.00164414 0)
(-0.0544597 -0.000219882 0)
(-0.0577348 0.000833887 0)
(-0.0571209 -0.000470594 0)
(-0.0584852 -0.000560504 0)
(-0.0581737 -0.000514215 0)
(-0.0576978 -0.00166598 0)
(-0.0586477 -0.000319513 0)
(-0.0577071 -0.00207705 0)
(-0.0594568 -0.000720106 0)
(-0.056668 -0.00260485 0)
(-0.0558837 -0.00281134 0)
(-0.0489712 -0.00716769 0)
(-0.0502648 -0.011594 0)
(-0.00314036 -0.0228013 0)
(-0.00826745 0.0324583 0)
(-0.0195994 0.0210351 0)
(-0.0200772 0.0100324 0)
(-0.0243163 0.00685923 0)
(-0.0201835 0.00269312 0)
(-0.0272571 0.00343347 0)
(-0.0199276 0.00137744 0)
(-0.0274128 0.00234665 0)
(-0.0221734 0.000614624 0)
(-0.025634 0.00141726 0)
(-0.0244272 0.000541201 0)
(-0.0237677 0.00118265 0)
(-0.0250202 0.000462715 0)
(-0.0256103 0.000675371 0)
(-0.0259411 4.02278e-05 0)
(-0.0289822 -0.00103417 0)
(-0.0248469 -0.00176677 0)
(-0.0250753 -0.0115315 0)
(-0.0349462 -0.0220786 0)
(-0.00295122 -0.046269 0)
(-0.00580173 0.038436 0)
(-0.00776814 0.0248568 0)
(-0.00699483 0.0108446 0)
(-0.00764408 0.00476038 0)
(-0.0041057 0.00210236 0)
(-0.00854932 0.00261178 0)
(-0.00366474 0.00111777 0)
(-0.00933015 0.00134423 0)
(-0.00544448 0.000533371 0)
(-0.0103651 -0.000334435 0)
(-0.00871418 -0.000499765 0)
(-0.0118549 -0.00140989 0)
(-0.0113289 0.000987533 0)
(-0.0112712 -0.000294811 0)
(-0.0134479 0.00187954 0)
(-0.00664778 -0.00203023 0)
(-0.0156856 -0.00247258 0)
(0.00313936 3.92101e-05 0)
(-0.0139732 -0.0141169 0)
(0.00143297 -0.0581249 0)
(-0.00131143 0.0434806 0)
(-0.00430048 0.0271598 0)
(-0.000477292 0.00793371 0)
(-0.00177095 0.00529625 0)
(0.000200775 0.00297373 0)
(-0.00367936 0.0031173 0)
(-0.0010152 0.00259245 0)
(-0.0050875 0.00315365 0)
(-0.00243561 0.00228151 0)
(-0.00573317 0.00327493 0)
(-0.00409233 0.00283589 0)
(-0.00561946 0.00247317 0)
(-0.00639694 0.0010205 0)
(-0.00362722 0.000727361 0)
(-0.00782971 -0.00247982 0)
(-0.00180826 -0.00267208 0)
(-0.010751 -0.0105104 0)
(-0.00440397 -0.0168872 0)
(-0.0115119 -0.0226935 0)
(0.00253272 -0.0634853 0)
(-0.00251752 0.0437894 0)
(-0.000392255 0.0247325 0)
(-0.000344332 0.00767427 0)
(-9.56604e-05 0.00373976 0)
(0.000107351 0.00354255 0)
(-0.00175018 0.00344488 0)
(-0.00129427 0.00280454 0)
(-0.00267995 0.0024427 0)
(-0.00259041 0.00185965 0)
(-0.00248905 0.00125212 0)
(-0.00279679 0.000235239 0)
(-0.00206036 0.000525084 0)
(-0.00507255 -0.000198343 0)
(-0.000631831 0.00051077 0)
(-0.00840308 0.000922542 0)
(-0.00245567 0.00112082 0)
(-0.00956232 0.0024944 0)
(0.00247179 -0.00265248 0)
(-0.00350468 -0.0128668 0)
(0.00303862 -0.0655173 0)
(-0.000447787 0.0459182 0)
(-0.001144 0.025656 0)
(0.000103711 0.00632066 0)
(-0.00104111 0.00532556 0)
(-0.00189379 0.00416313 0)
(-0.0024216 0.00471365 0)
(-0.00289039 0.00352853 0)
(-0.00308907 0.00377846 0)
(-0.00375897 0.00273199 0)
(-0.00288582 0.00256136 0)
(-0.00322391 0.00306066 0)
(-0.00233061 0.00363328 0)
(-0.00563754 0.000138803 0)
(-3.0749e-05 0.00334511 0)
(-0.0071175 0.000248033 0)
(0.0010007 -0.00352478 0)
(-0.00756731 -0.0148572 0)
(-0.000897471 -0.0226019 0)
(-0.00570771 -0.0273906 0)
(0.00380525 -0.067252 0)
(-0.00130489 0.0438767 0)
(0.00156591 0.0227731 0)
(-0.000220167 0.00821819 0)
(8.65923e-05 0.00504929 0)
(-0.000822159 0.0053939 0)
(-0.000678377 0.00438007 0)
(-0.00242144 0.00410337 0)
(-0.00256106 0.00322803 0)
(-0.00218075 0.00193962 0)
(0.000852853 0.000546018 0)
(-0.00327262 2.21419e-05 0)
(-0.0021149 0.00340913 0)
(-0.00533406 -0.00199048 0)
(0.00197492 0.000901789 0)
(-0.00758389 0.00119321 0)
(0.00349309 0.00066534 0)
(-0.00692598 0.00675776 0)
(0.00318938 -0.00694997 0)
(-0.00298584 -0.0118826 0)
(0.00461209 -0.0665261 0)
(1.64384e-05 0.0468062 0)
(4.47535e-05 0.0265353 0)
(-0.000655748 0.00758774 0)
(-0.000545309 0.00696066 0)
(-0.00259988 0.00429389 0)
(-0.00270551 0.00653877 0)
(-0.00293773 0.00506788 0)
(-0.00298666 0.00288225 0)
(-0.00170248 -0.000125904 0)
(-0.000237305 0.00335914 0)
(-0.00500632 0.00624583 0)
(-0.00994772 0.00386475 0)
(-0.00768857 -0.0036201 0)
(-0.00304144 0.00623924 0)
(-0.00760141 -0.000680728 0)
(-0.00474837 -0.00507261 0)
(-0.00610147 -0.0131158 0)
(0.0040245 -0.0280804 0)
(-0.00740881 -0.0327689 0)
(0.00477794 -0.0692374 0)
(-0.00132791 0.0419638 0)
(0.00181041 0.0216384 0)
(-0.000453077 0.00782743 0)
(-0.000528996 0.00596429 0)
(-0.000798571 0.00745847 0)
(-0.00303734 0.00424415 0)
(-0.00054742 0.00450332 0)
(0.000314326 0.00169176 0)
(-0.000622493 -0.000743606 0)
(-0.00518259 0.00347377 0)
(-0.0072322 0.0108366 0)
(-0.00866366 0.00814789 0)
(-0.00355221 -0.0100024 0)
(0.000632596 -0.000515929 0)
(-0.0062722 0.0037576 0)
(0.00153833 -0.00309839 0)
(-0.00409437 -0.00208064 0)
(0.00608423 -0.00647648 0)
(-0.00409616 -0.00922453 0)
(0.00610008 -0.0650696 0)
(0.000553891 0.0469988 0)
(-0.000269531 0.027955 0)
(-0.000666841 0.010934 0)
(0.00105046 0.00888597 0)
(-0.00251864 0.00766031 0)
(-0.00440779 0.00694176 0)
(-0.0057854 0.00268053 0)
(-0.00449679 0.00320282 0)
(-0.010155 0.00604885 0)
(-0.0104675 0.00989603 0)
(-0.0134955 0.00791425 0)
(-0.0154822 -0.000700832 0)
(-0.00388145 -0.0134848 0)
(-0.00489225 0.00989511 0)
(-0.00316772 0.000517115 0)
(0.000939416 -0.00696065 0)
(-0.00713393 -0.014599 0)
(0.00111929 -0.0270589 0)
(-0.00668037 -0.0302352 0)
(0.0069556 -0.0706496 0)
(-0.000954675 0.0416697 0)
(0.00033466 0.0208939 0)
(-0.000794955 0.00482499 0)
(-0.00340286 0.00660292 0)
(-0.00744009 0.0115903 0)
(-0.00598921 0.00578401 0)
(-0.0101687 0.00398525 0)
(-0.0133666 0.0047238 0)
(-0.0135918 0.00621863 0)
(-0.0107512 0.00795484 0)
(-0.00572316 0.0152586 0)
(-0.00727114 0.00111953 0)
(-0.00435078 -0.0227801 0)
(0.00384294 -0.00388792 0)
(0.00252123 -0.00169016 0)
(0.00441139 -0.00179782 0)
(-0.0067484 -0.00426914 0)
(-0.00437185 -0.0116727 0)
(-0.00783189 -0.0186539 0)
(0.00655005 -0.066884 0)
(0.000810396 0.0461569 0)
(0.000125241 0.0297862 0)
(0.00119027 0.0157511 0)
(-0.00463144 0.0167122 0)
(-0.00446874 0.0125625 0)
(-0.00174169 0.0103527 0)
(-0.00983179 0.011019 0)
(-0.0153234 0.00699586 0)
(-0.0182951 0.00460927 0)
(-0.0157664 0.000664288 0)
(-0.0106699 0.0052914 0)
(-0.000834932 -0.00162235 0)
(-0.00603263 -0.021849 0)
(0.00122696 0.00277416 0)
(-0.00153796 0.00253964 0)
(0.0113126 0.00152555 0)
(0.00386175 -0.000980419 0)
(0.00867295 -0.0246153 0)
(-0.00704765 -0.0385074 0)
(0.00735855 -0.070825 0)
(-0.000543767 0.0430576 0)
(-0.000739116 0.0204167 0)
(-0.00094631 0.0088246 0)
(-0.000543862 0.01046 0)
(0.00558631 0.00854997 0)
(0.00296349 0.00886529 0)
(2.81293e-05 0.0154435 0)
(-0.00211436 0.0106423 0)
(-0.00896773 0.00856809 0)
(-0.00455089 -0.000465566 0)
(-0.00664028 -0.00266692 0)
(-0.00115234 -0.00410887 0)
(0.000590782 -0.0261061 0)
(-0.00239024 -0.0103372 0)
(-0.000189387 -0.0114539 0)
(0.00551008 -0.0102653 0)
(-0.00294055 0.000681083 0)
(0.0119407 -0.00605245 0)
(-0.0066331 -0.015469 0)
(0.00797069 -0.0648681 0)
(-0.000492775 0.0450456 0)
(0.00212597 0.0278068 0)
(-0.000645646 0.0156888 0)
(0.00573608 0.0103368 0)
(0.00284281 0.0107429 0)
(0.00901413 0.0147434 0)
(0.00699783 0.0194115 0)
(0.0122499 0.0150326 0)
(0.00494745 0.0107775 0)
(0.0112021 -0.00126852 0)
(0.00671094 -0.000605918 0)
(0.0061851 -0.00707047 0)
(0.0100342 -0.0167515 0)
(-0.00479454 0.00295257 0)
(0.00815149 -0.0014062 0)
(-0.00655987 0.00291246 0)
(-0.000399252 -0.0058452 0)
(0.0149059 -0.0191156 0)
(-0.00391166 -0.0327325 0)
(0.00850622 -0.0686007 0)
(0.0010571 0.043179 0)
(0.000812667 0.0236697 0)
(0.00138873 0.0067066 0)
(0.00189641 0.0051701 0)
(0.00663507 0.0084093 0)
(0.00954253 0.00376761 0)
(0.0120415 0.0134231 0)
(0.0277193 0.0124505 0)
(0.0146363 0.0100928 0)
(0.0315009 -0.000254164 0)
(0.0184172 -0.00199567 0)
(0.0241996 -0.00138099 0)
(0.0204398 -0.0198479 0)
(0.0196511 -0.00874698 0)
(0.0246651 -0.0112991 0)
(0.0229781 -0.00372389 0)
(0.0166771 -0.0192213 0)
(0.0170042 -0.00944131 0)
(-0.00777106 -0.00786222 0)
(0.00854744 -0.0649696 0)
(-0.000647606 0.0417712 0)
(0.00394464 0.025501 0)
(0.001251 0.0144658 0)
(0.00591917 0.00417334 0)
(-0.00444476 0.00400429 0)
(0.0197207 0.00516027 0)
(0.00318149 0.00501489 0)
(0.0361484 0.00689001 0)
(0.012879 0.0121902 0)
(0.0388538 -0.00265612 0)
(0.0168243 0.00106163 0)
(0.036404 -0.00471708 0)
(0.0203347 -0.0174495 0)
(0.020215 -0.00337007 0)
(0.0165943 0.00333839 0)
(0.0103317 0.00616675 0)
(-0.0070744 0.00820381 0)
(0.00315384 0.00524737 0)
(-0.00569147 -0.0223796 0)
(0.00705878 -0.0688746 0)
(0.00299455 0.0390894 0)
(0.00299543 0.0215652 0)
(0.00266987 0.0051544 0)
(0.00978514 0.00842607 0)
(0.00427611 -0.0022106 0)
(0.0100148 -0.00749472 0)
(0.0122506 -0.00149459 0)
(0.0196587 0.00309681 0)
(0.0202452 0.00274197 0)
(0.0295869 -0.000220276 0)
(0.0228462 -0.00387093 0)
(0.0325022 0.00222378 0)
(0.00870555 -0.00286923 0)
(-0.018355 -0.00842129 0)
(-0.00546465 0.00117112 0)
(-0.00349495 0.0139299 0)
(0.000163804 -0.0155764 0)
(0.0184931 -0.0109382 0)
(-0.00159869 -0.0196621 0)
(0.00571397 -0.0625567 0)
(0.00218563 0.035695 0)
(0.0111073 0.0253885 0)
(0.0116337 0.0108696 0)
(0.00739236 0.00139443 0)
(0.0187575 0.00469885 0)
(0.010516 -0.00483422 0)
(0.0160658 -0.00332491 0)
(0.0159322 -0.0023877 0)
(0.0208596 0.00192313 0)
(0.0228949 -0.00612002 0)
(0.0230414 0.00215896 0)
(0.0275562 0.00748117 0)
(0.0318922 0.021268 0)
(0.0229465 0.020735 0)
(0.0202043 -0.0131801 0)
(0.0148361 0.00561277 0)
(0.0271042 -0.0091074 0)
(0.00384367 0.00661559 0)
(0.00763584 0.00211234 0)
(0.0113744 -0.0590801 0)
(0.00799968 0.026263 0)
(0.00874675 0.0164192 0)
(0.0212094 0.00663114 0)
(0.0159598 0.00161088 0)
(0.0116386 -0.00377692 0)
(0.0125552 -0.00482472 0)
(-0.00419423 -0.00491156 0)
(-0.00228534 -0.000473815 0)
(-0.0120458 -0.00532429 0)
(-0.0127848 -0.00613327 0)
(-0.026302 -0.00939437 0)
(-0.0125854 -0.00129757 0)
(-0.0218268 0.00163837 0)
(0.0100513 0.00524859 0)
(-0.0024229 0.00313339 0)
(-0.00597545 0.00558888 0)
(0.011371 -0.00350068 0)
(-0.0205774 0.00221172 0)
(0.0286336 -0.0358997 0)
(0.00913861 -0.0575901 0)
(0.00727413 0.0188524 0)
(0.0335611 0.0129127 0)
(0.0334892 0.00982498 0)
(0.051351 0.00748323 0)
(0.0455184 0.00913273 0)
(0.0554111 0.00737647 0)
(0.0504728 0.010511 0)
(0.0581091 0.00640842 0)
(0.0555179 0.00969909 0)
(0.0635468 0.00746016 0)
(0.0602707 0.00974592 0)
(0.0640103 0.00138541 0)
(0.0605235 0.00184856 0)
(0.0614437 -0.00383436 0)
(0.0649804 0.00222349 0)
(0.0638947 -0.00345014 0)
(0.0670629 0.000532035 0)
(0.0630461 -0.00348723 0)
(0.0572175 -0.00977129 0)
(0.0290414 -0.00642637 0)
)
;

boundaryField
{
    movingWall
    {
        type            fixedValue;
        value           uniform (1 0 0);
    }
    fixedWalls
    {
        type            noSlip;
    }
    frontAndBack
    {
        type            empty;
    }
}


// ************************************************************************* //
