/*--------------------------------*- C++ -*----------------------------------*\
| =========                 |                                                 |
| \\      /  F ield         | OpenFOAM: The Open Source CFD Toolbox           |
|  \\    /   O peration     | Version:  5.x                                   |
|   \\  /    A nd           | Web:      www.OpenFOAM.org                      |
|    \\/     M anipulation  |                                                 |
\*---------------------------------------------------------------------------*/
FoamFile
{
    version     2.0;
    format      ascii;
    class       surfaceScalarField;
    location    "8.1";
    object      phi;
}
// * * * * * * * * * * * * * * * * * * * * * * * * * * * * * * * * * * * * * //

dimensions      [0 3 -1 0 0 0 0];

internalField   nonuniform List<scalar> 
760
(
-8.34321e-07
8.34321e-07
-1.88393e-06
1.04961e-06
-2.40419e-06
5.2026e-07
-2.70722e-06
3.03029e-07
-2.85808e-06
1.50863e-07
-2.64336e-06
-2.14723e-07
-2.61661e-06
-2.67491e-08
-2.51348e-06
-1.03135e-07
-2.18015e-06
-3.33327e-07
-2.07173e-06
-1.08423e-07
-2.17281e-06
1.01081e-07
-2.23088e-06
5.80726e-08
-2.24849e-06
1.76084e-08
-2.24953e-06
1.04271e-09
-2.29722e-06
4.76881e-08
-2.25967e-06
-3.75532e-08
-2.19104e-06
-6.86219e-08
-1.87252e-06
-3.18527e-07
-1.263e-06
-6.09517e-07
-1.263e-06
-8.72109e-07
1.70643e-06
-1.50542e-06
1.68292e-06
-2.07377e-06
1.08861e-06
-2.22811e-06
4.5737e-07
-2.06048e-06
-1.67617e-08
-1.9493e-06
-3.259e-07
-1.59244e-06
-3.83619e-07
-1.2806e-06
-4.14966e-07
-1.19991e-06
-4.14019e-07
-1.068e-06
-2.40339e-07
-9.01015e-07
-6.59004e-08
-8.23227e-07
-1.97152e-08
-8.61603e-07
5.59843e-08
-8.83961e-07
2.34005e-08
-9.48031e-07
1.11758e-07
-9.5316e-07
-3.24237e-08
-1.01325e-06
-8.52911e-09
-1.00951e-06
-3.22273e-07
-8.53423e-07
-7.656e-07
-2.11642e-06
-6.62845e-07
2.36927e-06
-9.77199e-07
1.99727e-06
-1.13305e-06
1.24446e-06
-1.15777e-06
4.82087e-07
-1.07584e-06
-9.86859e-08
-9.34655e-07
-4.67089e-07
-7.45481e-07
-5.72792e-07
-6.06292e-07
-5.54156e-07
-5.45291e-07
-4.7502e-07
-4.47413e-07
-3.38217e-07
-3.37981e-07
-1.75333e-07
-2.5164e-07
-1.06056e-07
-1.86803e-07
-8.85277e-09
-1.42534e-07
-2.08692e-08
-9.94114e-08
6.8636e-08
-7.15292e-08
-6.03059e-08
-5.28707e-08
-2.71876e-08
-1.08673e-07
-2.6647e-07
-2.39913e-07
-6.34361e-07
-2.35634e-06
-2.07159e-07
2.57643e-06
-1.9808e-07
1.98819e-06
-1.34092e-07
1.18047e-06
-6.18148e-08
4.0981e-07
-1.49739e-08
-1.45527e-07
-5.75925e-09
-4.76304e-07
-8.61041e-09
-5.69941e-07
-2.83365e-08
-5.34429e-07
-5.52414e-08
-4.48115e-07
-7.09276e-08
-3.2253e-07
-5.95041e-08
-1.86756e-07
-4.76954e-08
-1.17864e-07
-4.18759e-08
-1.46723e-08
-3.43915e-08
-2.83535e-08
-2.85186e-08
6.27631e-08
-4.37074e-08
-4.51172e-08
-7.68418e-08
5.94672e-09
-1.4885e-07
-1.94462e-07
-1.42259e-07
-6.40952e-07
-2.4986e-06
2.23769e-07
2.35266e-06
4.71507e-07
1.74046e-06
6.23416e-07
1.02856e-06
6.61488e-07
3.71739e-07
6.04407e-07
-8.84457e-08
4.75244e-07
-3.47142e-07
3.25317e-07
-4.20013e-07
1.85463e-07
-3.94575e-07
6.40934e-08
-3.26746e-07
-1.17039e-08
-2.46733e-07
-3.74306e-08
-1.61029e-07
-4.24991e-08
-1.12796e-07
-1.90459e-08
-3.81255e-08
4.4101e-10
-4.78404e-08
3.11751e-08
3.20291e-08
3.35492e-08
-4.74913e-08
8.83049e-09
3.06655e-08
-2.29819e-08
-1.62649e-07
-3.19741e-08
-6.3196e-07
-2.53057e-06
4.88479e-07
1.86419e-06
8.22876e-07
1.40606e-06
9.7341e-07
8.78029e-07
9.54132e-07
3.91016e-07
8.21092e-07
4.45947e-08
6.33021e-07
-1.59071e-07
4.51982e-07
-2.38975e-07
3.0742e-07
-2.50013e-07
1.96536e-07
-2.15862e-07
1.2757e-07
-1.77767e-07
8.15165e-08
-1.14975e-07
5.77127e-08
-8.89921e-08
4.11738e-08
-2.15866e-08
3.11114e-08
-3.7778e-08
2.77384e-08
3.54021e-08
1.09704e-08
-3.07234e-08
7.4197e-09
3.42162e-08
-2.23959e-08
-1.32834e-07
-1.99381e-08
-6.34418e-07
-2.55051e-06
5.0985e-07
1.35434e-06
8.2163e-07
1.09428e-06
9.49041e-07
7.50618e-07
9.20815e-07
4.19242e-07
7.9931e-07
1.661e-07
6.41468e-07
-1.22895e-09
4.85933e-07
-8.34396e-08
3.56905e-07
-1.20985e-07
2.53228e-07
-1.12185e-07
1.83137e-07
-1.07677e-07
1.30133e-07
-6.19716e-08
1.0236e-07
-6.12188e-08
8.03661e-08
4.07335e-10
7.01331e-08
-2.75449e-08
5.98849e-08
4.56503e-08
4.12353e-08
-1.20737e-08
1.92316e-08
5.62198e-08
-5.65747e-09
-1.07945e-07
-1.4135e-08
-6.25941e-07
-2.56464e-06
4.05603e-07
9.48733e-07
6.54531e-07
8.45351e-07
7.58127e-07
6.47022e-07
7.46594e-07
4.30775e-07
6.61339e-07
2.51356e-07
5.48366e-07
1.11744e-07
4.34363e-07
3.05636e-08
3.36246e-07
-2.28675e-08
2.50128e-07
-2.60675e-08
1.86361e-07
-4.39094e-08
1.34622e-07
-1.02322e-08
1.01391e-07
-2.79882e-08
7.54656e-08
2.63326e-08
5.98985e-08
-1.19779e-08
4.71922e-08
5.83566e-08
3.87756e-08
-3.6571e-09
3.02739e-08
6.47215e-08
2.4196e-08
-1.01867e-07
2.67398e-08
-6.28484e-07
-2.5379e-06
2.82083e-07
6.6665e-07
4.82227e-07
6.45207e-07
5.92588e-07
5.36661e-07
6.163e-07
4.07064e-07
5.81067e-07
2.86589e-07
5.09999e-07
1.82811e-07
4.24363e-07
1.162e-07
3.42662e-07
5.8833e-08
2.70379e-07
4.62162e-08
2.16389e-07
1.00805e-08
1.72469e-07
3.36871e-08
1.43291e-07
1.19065e-09
1.20872e-07
4.8751e-08
9.96411e-08
9.25328e-09
8.08806e-08
7.71171e-08
5.27703e-08
2.44532e-08
3.15568e-08
8.5935e-08
-6.47194e-09
-6.38379e-08
-2.12464e-08
-6.1371e-07
-2.55915e-06
2.37598e-07
4.29052e-07
3.75325e-07
5.07479e-07
4.38822e-07
4.73164e-07
4.48519e-07
3.97367e-07
4.18044e-07
3.17064e-07
3.79578e-07
2.21278e-07
3.30332e-07
1.65445e-07
2.82304e-07
1.06861e-07
2.30709e-07
9.7811e-08
1.84795e-07
5.59947e-08
1.45466e-07
7.30166e-08
1.08942e-07
3.77143e-08
8.79372e-08
6.97558e-08
6.09159e-08
3.62746e-08
6.09845e-08
7.70485e-08
6.77575e-08
1.76803e-08
5.37236e-08
9.99689e-08
4.63474e-08
-5.64617e-08
2.13202e-08
-5.88683e-07
-2.53783e-06
1.9688e-07
2.32173e-07
3.29149e-07
3.7521e-07
4.22699e-07
3.79613e-07
4.49833e-07
3.70233e-07
4.36458e-07
3.30439e-07
3.82541e-07
2.75195e-07
3.23666e-07
2.2432e-07
2.6474e-07
1.65787e-07
2.23549e-07
1.39003e-07
1.85117e-07
9.44267e-08
1.66015e-07
9.21186e-08
1.4389e-07
5.98393e-08
1.38488e-07
7.5158e-08
1.27645e-07
4.71174e-08
1.04803e-07
9.98905e-08
6.11807e-08
6.13023e-08
5.98397e-08
1.0131e-07
7.09172e-09
-3.71379e-09
-1.5347e-08
-5.66244e-07
-2.55318e-06
3.31323e-07
-9.91503e-08
3.23038e-07
3.83495e-07
3.08139e-07
3.94513e-07
3.15234e-07
3.63138e-07
3.23877e-07
3.21796e-07
3.27267e-07
2.71804e-07
2.98562e-07
2.53025e-07
2.61347e-07
2.03003e-07
2.13544e-07
1.86806e-07
1.72675e-07
1.35295e-07
1.30921e-07
1.33873e-07
9.31496e-08
9.76106e-08
6.13097e-08
1.06998e-07
-1.59137e-09
1.10019e-07
3.46786e-08
6.36206e-08
-5.74898e-09
1.0173e-07
3.17209e-08
6.384e-08
6.20044e-08
-3.39973e-08
3.00574e-08
-5.34297e-07
-2.52312e-06
3.69482e-07
-4.68632e-07
3.90802e-07
3.62174e-07
3.7789e-07
4.07425e-07
2.54087e-07
4.8694e-07
1.56194e-07
4.1969e-07
1.03021e-07
3.24977e-07
9.35364e-08
2.62509e-07
8.44274e-08
2.12112e-07
1.01567e-07
1.69666e-07
8.78706e-08
1.48992e-07
1.1257e-07
1.09173e-07
7.12715e-08
1.38909e-07
1.32573e-07
4.56964e-08
1.18083e-07
1.24508e-07
1.18691e-07
6.30127e-08
1.0003e-07
1.20392e-07
1.05481e-07
5.83883e-08
7.19731e-08
-4.89056e-10
-2.5047e-08
-4.37277e-07
-2.54817e-06
1.52306e-07
-6.20938e-07
2.20099e-07
2.9438e-07
3.46159e-07
2.81365e-07
4.8909e-07
3.44009e-07
5.51629e-07
3.57151e-07
5.06711e-07
3.69895e-07
4.49701e-07
3.19519e-07
3.68648e-07
2.93164e-07
3.03245e-07
2.3507e-07
2.37985e-07
2.14251e-07
1.95122e-07
1.52037e-07
1.49068e-07
1.84963e-07
6.4312e-08
1.30452e-07
2.58864e-08
1.62934e-07
-1.08324e-07
1.97223e-07
-2.92997e-07
3.05065e-07
-8.27114e-08
-1.51898e-07
3.42183e-08
-1.17419e-07
4.06924e-08
-4.43751e-07
-2.50747e-06
1.01951e-07
-7.22888e-07
1.21016e-07
2.75315e-07
-7.28711e-08
4.75253e-07
-1.01808e-07
3.72946e-07
-1.3193e-07
3.87273e-07
-8.39973e-08
3.21962e-07
-1.08702e-07
3.44224e-07
-8.89804e-08
2.73442e-07
-9.95634e-08
2.45653e-07
-8.67048e-08
2.01392e-07
-1.0528e-07
1.70612e-07
-1.3405e-07
2.13733e-07
-9.66205e-08
9.30226e-08
-2.12379e-07
2.78692e-07
3.23317e-08
-4.74875e-08
1.27403e-07
2.09993e-07
1.32645e-08
-3.77591e-08
-1.1975e-07
1.55961e-08
-8.06006e-08
-4.82901e-07
-2.58807e-06
8.02563e-08
-8.03145e-07
7.12439e-08
2.84327e-07
8.22846e-08
4.64212e-07
2.28134e-07
2.27097e-07
2.42044e-07
3.73363e-07
2.93e-07
2.71006e-07
3.74962e-07
2.62262e-07
4.03029e-07
2.45376e-07
4.63478e-07
1.85203e-07
4.43896e-07
2.20974e-07
4.78189e-07
1.36319e-07
3.98989e-07
2.92933e-07
4.66183e-07
2.58287e-08
3.46907e-07
3.97968e-07
2.22028e-07
7.73918e-08
1.97132e-07
2.3489e-07
9.88203e-08
6.05525e-08
3.43699e-08
8.00465e-08
5.96043e-08
-5.08135e-07
-2.52847e-06
-3.1721e-07
-4.85935e-07
-5.7156e-07
5.38677e-07
-3.73158e-07
2.6581e-07
-3.75404e-07
2.29343e-07
-3.29083e-07
3.27042e-07
-3.05708e-07
2.47631e-07
-2.67683e-07
2.24237e-07
-2.54186e-07
2.31879e-07
-2.68471e-07
1.99488e-07
-2.35389e-07
1.87893e-07
-2.57309e-07
1.58239e-07
-1.65349e-07
2.00973e-07
-2.38293e-07
9.87727e-08
-1.50857e-07
3.10532e-07
-1.18263e-07
4.4798e-08
-2.50669e-07
3.67295e-07
1.55541e-07
-3.45657e-07
1.63947e-07
7.16402e-08
2.28845e-08
-3.67072e-07
-2.50559e-06
-9.02506e-08
-3.95684e-07
2.87729e-07
1.60697e-07
2.74512e-07
2.79028e-07
2.73824e-07
2.30031e-07
3.38429e-07
2.62438e-07
3.71457e-07
2.14603e-07
4.19284e-07
1.7641e-07
4.77284e-07
1.73879e-07
4.87863e-07
1.88909e-07
5.27143e-07
1.48612e-07
5.00323e-07
1.85059e-07
5.47207e-07
1.54089e-07
5.59783e-07
8.61968e-08
5.0545e-07
3.64865e-07
6.24006e-07
-7.37581e-08
5.56576e-07
4.34726e-07
4.59391e-07
-2.48473e-07
2.1596e-07
3.15072e-07
2.39456e-07
-3.90569e-07
-2.26613e-06
-7.75137e-07
3.79453e-07
-8.83129e-07
2.68688e-07
-8.66835e-07
2.62735e-07
-7.89358e-07
1.52554e-07
-7.06528e-07
1.79607e-07
-6.36056e-07
1.44131e-07
-5.97681e-07
1.38035e-07
-5.61411e-07
1.3761e-07
-4.98403e-07
1.259e-07
-4.6656e-07
1.1677e-07
-3.79763e-07
9.82609e-08
-3.21804e-07
9.61309e-08
-3.07282e-07
7.16749e-08
-1.02607e-07
1.6019e-07
-2.93475e-07
1.17109e-07
6.80037e-09
1.34451e-07
-1.96519e-07
-4.51531e-08
1.40799e-07
-2.22468e-08
7.20014e-07
-9.69784e-07
-1.54612e-06
3.79453e-07
6.48141e-07
9.10876e-07
1.06343e-06
1.24304e-06
1.38717e-06
1.5252e-06
1.66281e-06
1.78871e-06
1.90548e-06
2.00374e-06
2.09987e-06
2.17155e-06
2.33174e-06
2.44885e-06
2.5833e-06
2.53815e-06
2.5159e-06
1.54612e-06
)
;

boundaryField
{
    movingWall
    {
        type            calculated;
        value           uniform 0;
    }
    fixedWalls
    {
        type            calculated;
        value           uniform 0;
    }
    frontAndBack
    {
        type            empty;
        value           nonuniform 0();
    }
}


// ************************************************************************* //
