/*--------------------------------*- C++ -*----------------------------------*\
| =========                 |                                                 |
| \\      /  F ield         | OpenFOAM: The Open Source CFD Toolbox           |
|  \\    /   O peration     | Version:  5.x                                   |
|   \\  /    A nd           | Web:      www.OpenFOAM.org                      |
|    \\/     M anipulation  |                                                 |
\*---------------------------------------------------------------------------*/
FoamFile
{
    version     2.0;
    format      ascii;
    class       volScalarField;
    location    "16";
    object      p;
}
// * * * * * * * * * * * * * * * * * * * * * * * * * * * * * * * * * * * * * //

dimensions      [0 2 -2 0 0 0 0];

internalField   nonuniform List<scalar> 
400
(
5.66496e-10
-0.000503415
-0.00088422
-0.00113714
-0.00126054
-0.0013448
-0.00138355
-0.00142621
-0.0014459
-0.0014557
-0.00144745
-0.00142891
-0.00141231
-0.00139657
-0.00137981
-0.00128576
-0.00107317
-0.00073208
-0.000454417
0.000950515
-0.000563852
-0.000904848
-0.00114197
-0.00127315
-0.00131752
-0.00137466
-0.00140645
-0.00142808
-0.00146838
-0.00145938
-0.00146948
-0.00144295
-0.0014314
-0.00142534
-0.00142017
-0.00140343
-0.00132323
-0.00116628
-0.00109837
-9.69812e-05
-0.000908467
-0.0011711
-0.00125972
-0.00133297
-0.00135052
-0.00138103
-0.00140635
-0.00142202
-0.00144497
-0.00144095
-0.0014469
-0.00143385
-0.00143286
-0.0014129
-0.0014254
-0.00135866
-0.00135855
-0.00125598
-0.00117798
-0.000772157
-0.00112581
-0.00127452
-0.00130924
-0.00134115
-0.00135602
-0.00137933
-0.00140367
-0.00141928
-0.00143923
-0.00144346
-0.00144805
-0.00143813
-0.00143733
-0.00142804
-0.00143557
-0.00142379
-0.00140342
-0.00133757
-0.00139802
-0.00119731
-0.00124029
-0.00131629
-0.00132204
-0.00135
-0.0013615
-0.00138457
-0.00140396
-0.00141846
-0.00143803
-0.00143777
-0.00144681
-0.00143356
-0.00143839
-0.00143166
-0.00144017
-0.00141413
-0.00143408
-0.00140252
-0.00138605
-0.0013623
-0.00129097
-0.00132771
-0.00134304
-0.00135497
-0.00137152
-0.00139001
-0.00140991
-0.00142473
-0.00144185
-0.00144471
-0.00144774
-0.00144126
-0.00143992
-0.00143684
-0.00145634
-0.0014399
-0.00147639
-0.00142564
-0.00148937
-0.00143305
-0.00132671
-0.00134402
-0.0013465
-0.00136673
-0.00137289
-0.00139583
-0.00141333
-0.0014312
-0.00145388
-0.00145625
-0.00145609
-0.00142779
-0.00143663
-0.00144944
-0.00145736
-0.0014487
-0.00149285
-0.00144875
-0.00145807
-0.00145632
-0.00132657
-0.00134137
-0.00134419
-0.00136052
-0.00137799
-0.00139872
-0.00142322
-0.00144615
-0.00146981
-0.00147817
-0.00147818
-0.00146681
-0.00143569
-0.0014401
-0.00146656
-0.00145551
-0.00148837
-0.00147547
-0.00152701
-0.00146975
-0.00133349
-0.00135585
-0.00135509
-0.00137707
-0.0013833
-0.00140124
-0.00143229
-0.00146312
-0.00150828
-0.00151322
-0.00149464
-0.00147737
-0.00145252
-0.00147386
-0.00151656
-0.00148495
-0.001522
-0.00147526
-0.00151495
-0.00142604
-0.00134298
-0.00134686
-0.00134089
-0.00136031
-0.0013711
-0.0013857
-0.00142308
-0.00147185
-0.00153461
-0.00155522
-0.00155909
-0.00155973
-0.00149217
-0.00144844
-0.00150095
-0.00145239
-0.00148697
-0.00144048
-0.00146685
-0.0014557
-0.00133976
-0.00136449
-0.00136383
-0.00137814
-0.00139759
-0.00140794
-0.00144779
-0.001511
-0.00157416
-0.00158539
-0.0016073
-0.00161222
-0.00157887
-0.0015015
-0.0015664
-0.0015081
-0.00160845
-0.00151338
-0.00155145
-0.00150502
-0.00135702
-0.00135752
-0.00135778
-0.00136648
-0.00139456
-0.0013898
-0.00145484
-0.00155557
-0.0016686
-0.00165089
-0.00161603
-0.00162721
-0.00160756
-0.00147021
-0.00154631
-0.00148489
-0.00156926
-0.00147006
-0.00158597
-0.0014844
-0.00134386
-0.00134153
-0.00135455
-0.00136002
-0.00140129
-0.00139107
-0.00152165
-0.00163141
-0.00181192
-0.00177262
-0.00166934
-0.00178091
-0.00164452
-0.00146336
-0.00158109
-0.0014539
-0.00153964
-0.00147504
-0.00151671
-0.00140339
-0.00133612
-0.00136192
-0.00135462
-0.00133586
-0.00139178
-0.00137097
-0.00149824
-0.00163138
-0.00181465
-0.00182328
-0.00169023
-0.00183475
-0.00153827
-0.00144062
-0.0014902
-0.00141468
-0.00151121
-0.00132632
-0.00140617
-0.00132016
-0.00129723
-0.00131717
-0.00132876
-0.00131031
-0.00135325
-0.00129983
-0.00144685
-0.00153451
-0.00173393
-0.00177244
-0.00167387
-0.00172179
-0.00149516
-0.00143852
-0.0015468
-0.00142126
-0.00147625
-0.00134695
-0.00129666
-0.00131761
-0.00122256
-0.00127284
-0.00130978
-0.00128219
-0.00135623
-0.00127488
-0.00138362
-0.00146155
-0.00153126
-0.00163068
-0.00161385
-0.00163837
-0.00150797
-0.00153193
-0.00152291
-0.00130096
-0.00127336
-0.00130712
-0.001214
-0.00131532
-0.00111889
-0.00121609
-0.00129695
-0.00128792
-0.00131209
-0.00129964
-0.00135512
-0.0013966
-0.00145097
-0.00152868
-0.00158162
-0.001424
-0.0012911
-0.00180788
-0.00155472
-0.00147359
-0.00144664
-0.00138348
-0.00141653
-0.00114249
-0.000939474
-0.00111637
-0.0012107
-0.00126452
-0.00129725
-0.00129934
-0.00134146
-0.00138312
-0.00142215
-0.00152825
-0.00171538
-0.00177447
-0.00159177
-0.00145415
-0.00132928
-0.00139079
-0.00133804
-0.00111993
-0.000895461
-0.000688508
-0.000677755
-0.000904018
-0.00114702
-0.00119321
-0.00122777
-0.00121919
-0.00129155
-0.00137563
-0.00144576
-0.00167857
-0.00201684
-0.00184197
-0.00158673
-0.00122034
-0.00123563
-0.00143164
-0.00119856
-0.00151965
-0.00117638
-0.000222564
-0.00038927
-0.000631226
-0.000976888
-0.00119991
-0.00126356
-0.00129683
-0.00131468
-0.00140608
-0.00155601
-0.00164246
-0.00158864
-0.00143591
-0.00126889
-0.00123974
-0.00125575
-0.00130281
-0.00121904
-0.000873637
-0.000267411
0.00167034
)
;

boundaryField
{
    movingWall
    {
        type            zeroGradient;
    }
    fixedWalls
    {
        type            zeroGradient;
    }
    frontAndBack
    {
        type            empty;
    }
}


// ************************************************************************* //
