/*--------------------------------*- C++ -*----------------------------------*\
| =========                 |                                                 |
| \\      /  F ield         | OpenFOAM: The Open Source CFD Toolbox           |
|  \\    /   O peration     | Version:  5.x                                   |
|   \\  /    A nd           | Web:      www.OpenFOAM.org                      |
|    \\/     M anipulation  |                                                 |
\*---------------------------------------------------------------------------*/
FoamFile
{
    version     2.0;
    format      ascii;
    class       surfaceScalarField;
    location    "16";
    object      phi;
}
// * * * * * * * * * * * * * * * * * * * * * * * * * * * * * * * * * * * * * //

dimensions      [0 3 -1 0 0 0 0];

internalField   nonuniform List<scalar> 
760
(
-1.07778e-06
1.07778e-06
-1.85744e-06
7.79658e-07
-2.22151e-06
3.64069e-07
-2.47184e-06
2.50331e-07
-2.56084e-06
8.90009e-08
-2.70227e-06
1.41428e-07
-2.7435e-06
4.12283e-08
-2.83271e-06
8.92151e-08
-2.86239e-06
2.96753e-08
-2.89287e-06
3.04784e-08
-2.91101e-06
1.81403e-08
-2.89714e-06
-1.38617e-08
-2.89976e-06
2.61984e-09
-2.86696e-06
-3.28061e-08
-2.85121e-06
-1.57495e-08
-2.76919e-06
-8.20194e-08
-2.67098e-06
-9.82102e-08
-2.25699e-06
-4.13985e-07
-1.54307e-06
-7.13926e-07
-1.54307e-06
-6.2629e-07
1.70407e-06
-9.88694e-07
1.14206e-06
-1.10847e-06
4.83846e-07
-1.12843e-06
2.7029e-07
-1.15288e-06
1.13454e-07
-1.16226e-06
1.50807e-07
-1.18413e-06
6.30971e-08
-1.1972e-06
1.02281e-07
-1.2083e-06
4.07823e-08
-1.21226e-06
3.44345e-08
-1.20316e-06
9.04405e-09
-1.20509e-06
-1.19344e-08
-1.22947e-06
2.69986e-08
-1.2641e-06
1.8195e-09
-1.32406e-06
4.42138e-08
-1.31206e-06
-9.40222e-08
-1.26926e-06
-1.41011e-07
-1.33435e-06
-3.48891e-07
-1.08248e-06
-9.65796e-07
-2.62555e-06
-2.97271e-07
2.00134e-06
-3.9164e-07
1.23643e-06
-3.46082e-07
4.38288e-07
-3.06324e-07
2.30532e-07
-3.07522e-07
1.14652e-07
-2.96935e-07
1.4022e-07
-3.29618e-07
9.578e-08
-3.47386e-07
1.20049e-07
-3.92482e-07
8.58784e-08
-4.44457e-07
8.64095e-08
-5.07986e-07
7.25734e-08
-5.4838e-07
2.84596e-08
-5.69778e-07
4.83961e-08
-5.76918e-07
8.95947e-09
-5.19317e-07
-1.33865e-08
-5.14759e-07
-9.85805e-08
-3.33398e-07
-3.22372e-07
-2.33917e-07
-4.48372e-07
-3.6577e-07
-8.33943e-07
-2.99132e-06
-1.27527e-07
2.12887e-06
-1.39892e-07
1.2488e-06
-6.09514e-08
3.59347e-07
-5.25873e-08
2.22168e-07
-9.8126e-08
1.60191e-07
-1.26565e-07
1.68658e-07
-1.6794e-07
1.37156e-07
-1.87677e-07
1.39786e-07
-2.0948e-07
1.07681e-07
-2.3208e-07
1.0901e-07
-2.3854e-07
7.90326e-08
-2.83443e-07
7.33631e-08
-2.553e-07
2.02533e-08
-2.7359e-07
2.72495e-08
-2.37876e-07
-4.91008e-08
-2.80337e-07
-5.61196e-08
-3.95208e-07
-2.07501e-07
-3.73191e-07
-4.70389e-07
-2.73342e-07
-9.33792e-07
-3.26466e-06
-7.04826e-08
2.19935e-06
-3.4036e-08
1.21235e-06
-2.47876e-08
3.50099e-07
-2.18729e-08
2.19254e-07
-5.71874e-08
1.95505e-07
-9.29423e-08
2.04413e-07
-1.18105e-07
1.62319e-07
-1.36119e-07
1.57799e-07
-1.38993e-07
1.10556e-07
-1.23569e-07
9.35857e-08
-1.22108e-07
7.75709e-08
-1.65699e-07
1.16954e-07
-1.45525e-07
7.99927e-11
-2.06652e-07
8.8376e-08
-2.83102e-07
2.73497e-08
-2.83837e-07
-5.5385e-08
-1.97669e-07
-2.93668e-07
-4.74744e-08
-6.20584e-07
-3.60147e-08
-9.45252e-07
-3.30067e-06
-3.06218e-08
2.22997e-06
-3.67565e-08
1.21848e-06
-3.88797e-08
3.52222e-07
-8.75462e-08
2.6792e-07
-1.23366e-07
2.31325e-07
-1.45966e-07
2.27013e-07
-1.69049e-07
1.85403e-07
-1.76542e-07
1.65292e-07
-1.77039e-07
1.11053e-07
-1.48308e-07
6.48544e-08
-1.39531e-07
6.8794e-08
-1.89471e-07
1.66894e-07
-1.50109e-07
-3.92822e-08
-1.71208e-07
1.09475e-07
-1.76501e-07
3.26432e-08
-1.57052e-07
-7.48344e-08
-2.48736e-07
-2.01985e-07
-1.61606e-07
-7.07714e-07
-7.90335e-08
-1.02782e-06
-3.37971e-06
9.07504e-09
2.2209e-06
2.51812e-08
1.20238e-06
-1.40883e-08
3.91492e-07
-3.60061e-08
2.89838e-07
-5.1352e-08
2.46671e-07
-9.84199e-08
2.74081e-07
-1.45505e-07
2.32488e-07
-1.27073e-07
1.46859e-07
-4.00399e-08
2.40203e-08
-4.86593e-08
7.34739e-08
-1.39638e-07
1.59773e-07
-1.81985e-07
2.0924e-07
-9.29317e-08
-1.28335e-07
-1.41259e-07
1.57803e-07
-1.19586e-07
1.097e-08
-8.44111e-08
-1.10009e-07
-1.24177e-07
-1.62218e-07
9.50088e-10
-8.32841e-07
3.57922e-08
-1.06267e-06
-3.34391e-06
-3.94899e-09
2.22485e-06
-2.73775e-08
1.22581e-06
-4.09143e-08
4.05029e-07
-9.38198e-08
3.42743e-07
-1.57193e-07
3.10043e-07
-1.61625e-07
2.78513e-07
-1.7084e-07
2.41703e-07
-1.31265e-07
1.07285e-07
-6.18923e-08
-4.53529e-08
-1.23832e-07
1.35413e-07
-3.6126e-07
3.97201e-07
-4.57109e-07
3.05089e-07
-2.83392e-07
-3.02052e-07
-2.65672e-07
1.40083e-07
-3.3872e-07
8.40175e-08
-2.75603e-07
-1.73126e-07
-9.75966e-08
-3.40225e-07
-8.70946e-08
-8.43343e-07
-8.6135e-08
-1.06363e-06
-3.43005e-06
7.37277e-09
2.21747e-06
1.72375e-08
1.21594e-06
-3.08562e-08
4.53122e-07
-4.7236e-08
3.59123e-07
-1.16686e-07
3.79494e-07
-1.18038e-07
2.79864e-07
-4.57397e-08
1.69405e-07
-3.35787e-08
9.51236e-08
-1.63142e-07
8.42101e-08
-3.25115e-07
2.97386e-07
-4.09939e-07
4.82025e-07
-3.36017e-07
2.31167e-07
-9.83689e-08
-5.397e-07
-1.45024e-07
1.86738e-07
-1.44895e-07
8.38882e-08
-5.25441e-08
-2.65476e-07
5.69822e-08
-4.49751e-07
7.51427e-08
-8.61504e-07
3.02828e-08
-1.01877e-06
-3.39977e-06
2.04472e-09
2.21543e-06
-3.99749e-08
1.25796e-06
-5.6088e-09
4.18756e-07
-7.06992e-08
4.24214e-07
-2.12476e-07
5.21271e-07
-2.97973e-07
3.65361e-07
-3.20107e-07
1.91539e-07
-3.97871e-07
1.72888e-07
-5.41159e-07
2.27498e-07
-5.99318e-07
3.55545e-07
-6.92906e-07
5.75614e-07
-5.23722e-07
6.19832e-08
-2.41163e-07
-8.2226e-07
-1.84996e-07
1.30571e-07
-6.57466e-08
-3.53611e-08
-1.23761e-07
-2.07462e-07
-1.00204e-07
-4.73308e-07
-5.94022e-08
-9.02306e-07
1.19539e-08
-1.09012e-06
-3.38781e-06
-1.86626e-08
2.23409e-06
-1.49679e-08
1.25427e-06
-1.12055e-07
5.15844e-07
-2.84445e-07
5.96603e-07
-3.55815e-07
5.92641e-07
-4.07522e-07
4.17069e-07
-6.10719e-07
3.94735e-07
-7.16937e-07
2.79106e-07
-7.06704e-07
2.17265e-07
-4.60282e-07
1.09123e-07
-3.18065e-07
4.33397e-07
-2.5904e-07
2.95872e-09
2.17973e-08
-1.1031e-06
1.91555e-07
-3.91862e-08
1.38187e-07
1.80062e-08
-6.83634e-08
-9.11641e-10
-3.39808e-07
-2.01863e-07
-2.77672e-07
-9.64442e-07
-2.93222e-08
-1.33847e-06
-3.41713e-06
1.94067e-08
2.21469e-06
2.5325e-08
1.24835e-06
-8.64651e-08
6.27634e-07
-1.84188e-07
6.94326e-07
-1.23138e-07
5.31591e-07
-2.39664e-07
5.33595e-07
-5.96324e-07
7.51395e-07
-8.02771e-07
4.85553e-07
-9.21015e-07
3.3551e-07
-7.54307e-07
-5.75859e-08
-3.27954e-07
7.0435e-09
-1.53619e-07
-1.71376e-07
-1.06804e-07
-1.14991e-06
2.59573e-08
-1.71948e-07
2.2144e-07
-1.77476e-07
3.97314e-07
-1.76786e-07
1.96311e-07
-8.60228e-10
-2.35978e-08
-7.44533e-07
-7.16687e-09
-1.3549e-06
-3.4243e-06
-3.34232e-08
2.24811e-06
-3.83708e-08
1.2533e-06
-2.85265e-08
6.17789e-07
1.75144e-07
4.90655e-07
2.03748e-07
5.02987e-07
9.14241e-08
6.45919e-07
-3.51943e-08
8.78014e-07
-2.19463e-07
6.69822e-07
-3.30185e-07
4.46232e-07
-2.99888e-07
-8.78832e-08
-1.85496e-07
-1.07348e-07
-4.33695e-08
-3.13503e-07
-4.45052e-08
-1.14878e-06
-3.75904e-08
-1.78863e-07
1.23623e-07
-3.38689e-07
1.18841e-07
-1.72004e-07
1.87225e-07
-6.92444e-08
1.23424e-07
-6.80732e-07
1.83007e-08
-1.24978e-06
-3.406e-06
6.54301e-08
2.18268e-06
5.34136e-08
1.26531e-06
1.31047e-07
5.40156e-07
2.30734e-07
3.90968e-07
2.66906e-07
4.66815e-07
4.25559e-07
4.87267e-07
4.79077e-07
8.24496e-07
4.84975e-07
6.63924e-07
4.09254e-07
5.21953e-07
4.00688e-07
-7.93171e-08
3.57229e-07
-6.38889e-08
3.48566e-07
-3.0484e-07
1.29647e-07
-9.29857e-07
6.48011e-08
-1.14017e-07
2.04872e-09
-2.75937e-07
-1.5398e-07
-1.59754e-08
3.16704e-07
-5.39928e-07
3.01275e-07
-6.65303e-07
9.19294e-08
-1.04043e-06
-3.31407e-06
4.57574e-08
2.13692e-06
6.65854e-08
1.24448e-06
7.63956e-08
5.30346e-07
2.37245e-07
2.30119e-07
3.7954e-07
3.2452e-07
6.1867e-07
2.48136e-07
9.7755e-07
4.65616e-07
1.10736e-06
5.34115e-07
1.13356e-06
4.95752e-07
1.17357e-06
-1.19328e-07
1.12532e-06
-1.56345e-08
1.05836e-06
-2.37884e-07
1.02795e-06
-8.99447e-07
1.18601e-06
-2.72079e-07
1.09097e-06
-1.809e-07
1.01659e-06
5.84083e-08
7.99789e-07
-3.23126e-07
2.49047e-07
-1.14561e-07
2.7212e-08
-8.18599e-07
-3.28686e-06
9.37881e-08
2.04313e-06
1.337e-07
1.20457e-06
1.63139e-07
5.00906e-07
7.52207e-08
3.18038e-07
3.69007e-07
3.07343e-08
6.60671e-07
-4.35287e-08
9.86202e-07
1.40086e-07
1.21156e-06
3.08756e-07
1.35448e-06
3.52834e-07
1.34268e-06
-1.0753e-07
1.41453e-06
-8.74814e-08
1.34798e-06
-1.7134e-07
1.05162e-06
-6.03087e-07
9.87439e-07
-2.07895e-07
6.16232e-07
1.90308e-07
1.07016e-07
5.67625e-07
-5.40259e-08
-1.62085e-07
-8.5866e-08
-8.27209e-08
5.22762e-08
-9.56741e-07
-3.23458e-06
1.66721e-07
1.87641e-06
1.61375e-07
1.20992e-06
3.01187e-07
3.61095e-07
3.72654e-07
2.46571e-07
3.47384e-07
5.60042e-08
6.04037e-07
-3.00182e-07
7.89037e-07
-4.49146e-08
1.03431e-06
6.34877e-08
1.31199e-06
7.51487e-08
1.40963e-06
-2.05173e-07
1.37473e-06
-5.25752e-08
8.82933e-07
3.20454e-07
-2.51206e-07
5.31052e-07
-7.0734e-07
2.48239e-07
-2.07304e-07
-3.09728e-07
-7.79125e-08
4.38233e-07
4.14373e-07
-6.54371e-07
4.42882e-07
-1.11229e-07
6.59977e-08
-5.79857e-07
-3.16859e-06
3.57861e-07
1.51855e-06
5.35315e-07
1.03246e-06
4.60412e-07
4.35998e-07
6.52849e-07
5.41343e-08
6.95687e-07
1.31654e-08
6.75185e-07
-2.79679e-07
8.07555e-07
-1.77285e-07
9.20344e-07
-4.93016e-08
1.12144e-06
-1.2595e-07
1.2213e-06
-3.05034e-07
1.3113e-06
-1.42571e-07
1.40637e-06
2.25381e-07
1.35241e-06
5.85019e-07
1.01266e-06
5.87985e-07
9.51972e-07
-2.4904e-07
1.05644e-06
3.3377e-07
7.29726e-07
-3.27661e-07
3.05889e-07
3.12608e-07
4.59954e-07
-7.33923e-07
-2.70863e-06
4.45967e-07
1.07258e-06
7.9898e-07
6.7945e-07
8.65585e-07
3.69393e-07
6.92329e-07
2.2739e-07
5.62079e-07
1.43416e-07
2.01409e-07
8.09906e-08
-1.3528e-07
1.59404e-07
-3.49987e-07
1.65406e-07
-6.00586e-07
1.24648e-07
-9.28688e-07
2.30689e-08
-1.06931e-06
-1.95135e-09
-8.34341e-07
-9.58639e-09
-3.24856e-07
7.55339e-08
2.17898e-07
4.52312e-08
-1.70228e-07
1.39087e-07
1.14103e-07
4.94385e-08
-1.52271e-07
-6.12866e-08
2.24051e-07
-6.37142e-08
8.49068e-07
-1.35894e-06
-1.85956e-06
1.07258e-06
1.75203e-06
2.12143e-06
2.34882e-06
2.49223e-06
2.57322e-06
2.73263e-06
2.89803e-06
3.02268e-06
3.04575e-06
3.0438e-06
3.03421e-06
3.10975e-06
3.15498e-06
3.29407e-06
3.3435e-06
3.28222e-06
3.2185e-06
1.85956e-06
)
;

boundaryField
{
    movingWall
    {
        type            calculated;
        value           uniform 0;
    }
    fixedWalls
    {
        type            calculated;
        value           uniform 0;
    }
    frontAndBack
    {
        type            empty;
        value           nonuniform 0();
    }
}


// ************************************************************************* //
