/*--------------------------------*- C++ -*----------------------------------*\
| =========                 |                                                 |
| \\      /  F ield         | OpenFOAM: The Open Source CFD Toolbox           |
|  \\    /   O peration     | Version:  5.x                                   |
|   \\  /    A nd           | Web:      www.OpenFOAM.org                      |
|    \\/     M anipulation  |                                                 |
\*---------------------------------------------------------------------------*/
FoamFile
{
    version     2.0;
    format      ascii;
    class       volVectorField;
    location    "16";
    object      U;
}
// * * * * * * * * * * * * * * * * * * * * * * * * * * * * * * * * * * * * * //

dimensions      [0 1 -1 0 0 0 0];

internalField   nonuniform List<vector> 
400
(
(-0.0138366 0.00674228 0)
(-0.0329251 0.00748313 0)
(-0.0412092 0.00321942 0)
(-0.0475039 0.00238285 0)
(-0.049259 0.000630457 0)
(-0.0531456 0.00188871 0)
(-0.0534547 4.74479e-05 0)
(-0.0563201 0.000916401 0)
(-0.0568105 0.000110026 0)
(-0.0577324 -0.000527429 0)
(-0.0583453 -5.22951e-05 0)
(-0.0574821 -0.00181372 0)
(-0.0585899 -0.000314333 0)
(-0.0573996 -0.00211344 0)
(-0.0592828 -0.000840685 0)
(-0.056332 -0.00265783 0)
(-0.0554824 -0.00294741 0)
(-0.0481192 -0.00705639 0)
(-0.0494352 -0.0110996 0)
(-0.00348506 -0.02286 0)
(-0.00824929 0.0322828 0)
(-0.0191495 0.0208317 0)
(-0.0198723 0.00965917 0)
(-0.0240549 0.00660736 0)
(-0.0195966 0.00256031 0)
(-0.02686 0.00339963 0)
(-0.0199151 0.00140484 0)
(-0.0265542 0.00259389 0)
(-0.0225303 0.000866826 0)
(-0.0247634 0.00161761 0)
(-0.0244967 0.000614268 0)
(-0.0234159 0.00115733 0)
(-0.0242677 0.000376486 0)
(-0.0255136 0.000583647 0)
(-0.0247767 5.62463e-05 0)
(-0.029036 -0.00130197 0)
(-0.0245783 -0.00193898 0)
(-0.0239483 -0.012037 0)
(-0.0346443 -0.0215975 0)
(-0.00221001 -0.0454541 0)
(-0.00575231 0.0376764 0)
(-0.00774647 0.0244015 0)
(-0.00680874 0.0104887 0)
(-0.00755636 0.00455612 0)
(-0.00405494 0.00187614 0)
(-0.00842776 0.0026571 0)
(-0.00368547 0.00127167 0)
(-0.00912779 0.00153205 0)
(-0.00526221 0.000996161 0)
(-0.00992877 -6.33249e-05 0)
(-0.00834299 -0.000135909 0)
(-0.0114388 -0.00154003 0)
(-0.0110734 0.000809128 0)
(-0.0109238 -0.000463237 0)
(-0.0132969 0.00190028 0)
(-0.00624986 -0.0017462 0)
(-0.0156668 -0.00289925 0)
(0.00326299 -0.000387296 0)
(-0.0138926 -0.0133396 0)
(0.00156344 -0.0568254 0)
(-0.00154387 0.0429771 0)
(-0.00437716 0.0265935 0)
(-0.000660501 0.00756725 0)
(-0.00191111 0.00514622 0)
(-2.62948e-05 0.00295508 0)
(-0.00395774 0.00315667 0)
(-0.0012745 0.00267245 0)
(-0.00523029 0.00325988 0)
(-0.0025495 0.00236318 0)
(-0.00559406 0.00330185 0)
(-0.00393277 0.00286451 0)
(-0.00529571 0.00256503 0)
(-0.00635282 0.0010535 0)
(-0.00349115 0.000738942 0)
(-0.00790062 -0.00248819 0)
(-0.00136918 -0.00279699 0)
(-0.0103014 -0.0103829 0)
(-0.00434847 -0.0173122 0)
(-0.0122807 -0.0225238 0)
(0.00293521 -0.0625544 0)
(-0.002842 0.0436337 0)
(-0.000433775 0.0241962 0)
(-0.000672353 0.00734979 0)
(-0.000463799 0.00363185 0)
(-0.000292831 0.00345584 0)
(-0.00212833 0.0034418 0)
(-0.00165138 0.0028132 0)
(-0.00291697 0.00245091 0)
(-0.00279218 0.00188878 0)
(-0.00248267 0.00126201 0)
(-0.0027397 0.000253465 0)
(-0.00183566 0.000535731 0)
(-0.00510436 -0.000227095 0)
(-0.000435734 0.000436751 0)
(-0.00827773 0.000657898 0)
(-0.00237982 0.000909266 0)
(-0.00970663 0.00241019 0)
(0.0022916 -0.00196447 0)
(-0.00418765 -0.0122798 0)
(0.00282248 -0.0649593 0)
(-0.000217959 0.0454534 0)
(-0.00119143 0.0252175 0)
(-0.000166289 0.00622911 0)
(-0.00129746 0.00526737 0)
(-0.00225122 0.00414466 0)
(-0.00272921 0.00468499 0)
(-0.00324484 0.00352013 0)
(-0.00336206 0.00372125 0)
(-0.0039467 0.00263438 0)
(-0.00290678 0.00237963 0)
(-0.0032142 0.00295707 0)
(-0.00214344 0.00388075 0)
(-0.00564689 0.000226433 0)
(-8.15037e-05 0.00319954 0)
(-0.00720821 0.000317984 0)
(0.000699841 -0.00336878 0)
(-0.00763561 -0.0146356 0)
(-0.00133169 -0.0223135 0)
(-0.00600073 -0.0277089 0)
(0.00337157 -0.0672013 0)
(-0.00136299 0.0439631 0)
(0.00165096 0.022728 0)
(-0.000518603 0.00820572 0)
(-0.000145643 0.00509838 0)
(-0.00113779 0.00536136 0)
(-0.00107674 0.0044211 0)
(-0.0027378 0.00408197 0)
(-0.00294701 0.00305388 0)
(-0.00240338 0.00168596 0)
(0.000926711 0.000258165 0)
(-0.00303139 -0.000224996 0)
(-0.00212427 0.00328051 0)
(-0.00551827 -0.00174889 0)
(0.0017829 0.000928194 0)
(-0.00759752 0.0011083 0)
(0.00320774 0.00050801 0)
(-0.00706746 0.00675256 0)
(0.00268198 -0.00571906 0)
(-0.0026762 -0.0112475 0)
(0.00410432 -0.0661099 0)
(-0.0001067 0.0460989 0)
(-0.000100766 0.0262711 0)
(-0.000868357 0.00755951 0)
(-0.000874841 0.00697893 0)
(-0.00291789 0.00432163 0)
(-0.00328268 0.00647791 0)
(-0.00331874 0.00501481 0)
(-0.00341377 0.00268865 0)
(-0.00204742 -0.00063843 0)
(-0.000369838 0.00274938 0)
(-0.00468389 0.00650667 0)
(-0.00959702 0.00451017 0)
(-0.00805331 -0.00320005 0)
(-0.00347345 0.00582816 0)
(-0.00769871 -0.000584697 0)
(-0.00513704 -0.00466523 0)
(-0.00656382 -0.0128076 0)
(0.00312297 -0.0280505 0)
(-0.00715407 -0.0330923 0)
(0.004237 -0.0696041 0)
(-0.0012787 0.0421607 0)
(0.00149494 0.0218194 0)
(-0.00068603 0.00809921 0)
(-0.000706329 0.00611042 0)
(-0.00101782 0.00783211 0)
(-0.0036308 0.00447495 0)
(-0.0012669 0.00443817 0)
(-0.000427725 0.00145722 0)
(-0.00112185 -0.0013698 0)
(-0.00523952 0.00251741 0)
(-0.00741068 0.00987026 0)
(-0.00872645 0.0084753 0)
(-0.00416776 -0.00881596 0)
(7.06162e-06 -0.000755179 0)
(-0.00633858 0.00352421 0)
(0.00118969 -0.00280465 0)
(-0.00369239 -0.00167097 0)
(0.00641425 -0.00631882 0)
(-0.00397476 -0.00967805 0)
(0.00554305 -0.064881 0)
(0.000656049 0.0469377 0)
(-0.000594217 0.0278204 0)
(-0.000830465 0.010758 0)
(0.000537578 0.00896033 0)
(-0.00328481 0.00799801 0)
(-0.00494623 0.00726603 0)
(-0.00697701 0.00275668 0)
(-0.00566517 0.00261552 0)
(-0.0109371 0.00493163 0)
(-0.0108132 0.00910916 0)
(-0.0126361 0.00865045 0)
(-0.0159793 6.99119e-05 0)
(-0.00403351 -0.0126833 0)
(-0.00498192 0.00894144 0)
(-0.00328549 0.000320831 0)
(0.0011518 -0.00690261 0)
(-0.00673968 -0.0149169 0)
(0.00325603 -0.0265589 0)
(-0.00596502 -0.0293007 0)
(0.00655471 -0.0706322 0)
(-0.00108665 0.0415672 0)
(0.000199926 0.0213493 0)
(-0.000688449 0.00525044 0)
(-0.00394802 0.00724272 0)
(-0.0077179 0.0119969 0)
(-0.00599339 0.00659539 0)
(-0.0104916 0.00446949 0)
(-0.0145297 0.0040131 0)
(-0.0150717 0.00456893 0)
(-0.01222 0.00570068 0)
(-0.0060806 0.0146757 0)
(-0.0070933 0.00247289 0)
(-0.00304356 -0.0213606 0)
(0.00421714 -0.00435555 0)
(0.00245114 -0.00208214 0)
(0.00394137 -0.00224532 0)
(-0.00737628 -0.00570801 0)
(-0.00474065 -0.0114424 0)
(-0.00746092 -0.0160095 0)
(0.00656079 -0.0667728 0)
(0.000909513 0.0468745 0)
(-9.98202e-05 0.0297124 0)
(0.00113022 0.0159743 0)
(-0.00444841 0.0173344 0)
(-0.00332791 0.0123984 0)
(-0.00111945 0.0107992 0)
(-0.00888095 0.0120578 0)
(-0.0149793 0.00739232 0)
(-0.0186844 0.00390224 0)
(-0.0166779 -0.00125988 0)
(-0.0124764 0.00344891 0)
(-0.00132043 -0.00224579 0)
(-0.0053191 -0.0214903 0)
(0.00185938 0.00307895 0)
(-0.00126056 0.00302718 0)
(0.0112211 0.00224443 0)
(0.00310436 -0.00153397 0)
(0.00594628 -0.0254978 0)
(-0.00737298 -0.0384538 0)
(0.00730578 -0.0711559 0)
(-0.000978417 0.0430169 0)
(-0.000291415 0.0201845 0)
(-0.00133769 0.00882691 0)
(0.000339676 0.0097636 0)
(0.00613577 0.00835483 0)
(0.00289247 0.00982238 0)
(0.000222807 0.0164786 0)
(-0.0013859 0.010993 0)
(-0.00851688 0.0083888 0)
(-0.00364401 -0.00146435 0)
(-0.007113 -0.00323806 0)
(-0.00160526 -0.00555089 0)
(0.000295032 -0.0265715 0)
(-0.00153161 -0.0103055 0)
(-0.000605124 -0.0109249 0)
(0.00662341 -0.00946653 0)
(-0.00281535 0.00148747 0)
(0.0112759 -0.006029 0)
(-0.00712549 -0.015948 0)
(0.00816706 -0.0653229 0)
(4.11532e-05 0.0454541 0)
(0.00228653 0.0285061 0)
(2.48418e-05 0.0155373 0)
(0.00568329 0.0103254 0)
(0.00273569 0.0114554 0)
(0.00902361 0.0159567 0)
(0.0069076 0.019737 0)
(0.0128983 0.0153289 0)
(0.00499546 0.0102123 0)
(0.0120781 -0.0022281 0)
(0.00574688 -0.00102943 0)
(0.00629984 -0.00766679 0)
(0.0097575 -0.0170417 0)
(-0.00497581 0.00353104 0)
(0.00698887 -0.00127514 0)
(-0.00675839 0.00302481 0)
(-0.000592868 -0.00418283 0)
(0.0151227 -0.0190799 0)
(-0.00468449 -0.0329001 0)
(0.00904327 -0.068662 0)
(0.00079596 0.0427678 0)
(0.000873987 0.0234452 0)
(0.00166812 0.0067098 0)
(0.00175386 0.00535433 0)
(0.00689477 0.00804331 0)
(0.00977718 0.0045169 0)
(0.0131771 0.0137408 0)
(0.0277536 0.0124955 0)
(0.0140586 0.010003 0)
(0.0324239 -0.00100405 0)
(0.0169618 -0.00164918 0)
(0.025017 -0.00340532 0)
(0.0204401 -0.0206862 0)
(0.0195604 -0.00769368 0)
(0.0248635 -0.0108606 0)
(0.0217892 -0.00389884 0)
(0.0161408 -0.0187071 0)
(0.017906 -0.0093321 0)
(-0.00832013 -0.00887965 0)
(0.00919275 -0.0652809 0)
(-0.00022237 0.0418133 0)
(0.00362485 0.025496 0)
(0.00136161 0.0140638 0)
(0.00589588 0.0042206 0)
(-0.00351783 0.0041905 0)
(0.0198706 0.00538897 0)
(0.00484541 0.00549745 0)
(0.0353764 0.0089572 0)
(0.0130612 0.0113795 0)
(0.0392373 -0.00319546 0)
(0.0163147 0.00117275 0)
(0.0381386 -0.00702695 0)
(0.0186627 -0.0175603 0)
(0.0212716 -0.00271663 0)
(0.0167389 0.00429096 0)
(0.0101356 0.00693981 0)
(-0.00640825 0.00764677 0)
(0.00381812 0.00539958 0)
(-0.00651794 -0.0218162 0)
(0.00805243 -0.0690777 0)
(0.00318145 0.0390657 0)
(0.00287151 0.021959 0)
(0.00310355 0.00521885 0)
(0.0098041 0.00792446 0)
(0.00437479 -0.00274962 0)
(0.0103777 -0.00737287 0)
(0.0127991 0.000219134 0)
(0.0191747 0.00391481 0)
(0.0220566 0.00205239 0)
(0.029361 -0.00072268 0)
(0.024598 -0.00416804 0)
(0.0331628 0.00175892 0)
(0.0053516 -0.00358581 0)
(-0.0180985 -0.00741068 0)
(-0.00654431 0.0022142 0)
(-0.00243248 0.0133146 0)
(-0.00107163 -0.0155931 0)
(0.0186777 -0.00956279 0)
(-0.00280675 -0.0208228 0)
(0.00631369 -0.0634946 0)
(0.00234969 0.0354022 0)
(0.0106168 0.0252452 0)
(0.0113616 0.0100156 0)
(0.00752093 0.00159007 0)
(0.0189011 0.00469543 0)
(0.00959547 -0.00524239 0)
(0.0167599 -0.00219337 0)
(0.0161999 -0.00162394 0)
(0.0216347 0.000912352 0)
(0.0229996 -0.00704678 0)
(0.0234671 0.00197227 0)
(0.0288155 0.00870929 0)
(0.0302708 0.0218995 0)
(0.023363 0.0192629 0)
(0.0190111 -0.0130853 0)
(0.016605 0.00597545 0)
(0.0263375 -0.00880233 0)
(0.0041132 0.00658623 0)
(0.0082499 0.00183421 0)
(0.0114994 -0.0590364 0)
(0.00744205 0.0265767 0)
(0.00902869 0.016503 0)
(0.0210881 0.00639551 0)
(0.0153213 0.000939435 0)
(0.0117762 -0.00396532 0)
(0.0118134 -0.00479635 0)
(-0.0042585 -0.00429184 0)
(-0.00114308 -0.000168037 0)
(-0.0117693 -0.00560068 0)
(-0.0131593 -0.00661311 0)
(-0.0274444 -0.00927513 0)
(-0.012146 -0.000617741 0)
(-0.0212121 0.00190308 0)
(0.00996601 0.00532302 0)
(-0.00214424 0.00284921 0)
(-0.00610575 0.00599472 0)
(0.0121748 -0.00318474 0)
(-0.0201773 0.00264786 0)
(0.0297001 -0.0365934 0)
(0.0094234 -0.0580249 0)
(0.00737162 0.0189368 0)
(0.033807 0.0128065 0)
(0.0334034 0.00979691 0)
(0.0518937 0.00753868 0)
(0.0445952 0.00907518 0)
(0.0552845 0.00742046 0)
(0.0499073 0.010109 0)
(0.0577907 0.00625815 0)
(0.0555196 0.00987623 0)
(0.063555 0.00785554 0)
(0.0598791 0.00977582 0)
(0.0643611 0.000673939 0)
(0.0596058 0.00209806 0)
(0.0623007 -0.00400596 0)
(0.0646084 0.00211589 0)
(0.0636817 -0.00346865 0)
(0.0673161 0.000262599 0)
(0.0625126 -0.0037312 0)
(0.0579419 -0.0102231 0)
(0.0274432 -0.00527734 0)
)
;

boundaryField
{
    movingWall
    {
        type            fixedValue;
        value           uniform (1 0 0);
    }
    fixedWalls
    {
        type            noSlip;
    }
    frontAndBack
    {
        type            empty;
    }
}


// ************************************************************************* //
