/*--------------------------------*- C++ -*----------------------------------*\
| =========                 |                                                 |
| \\      /  F ield         | OpenFOAM: The Open Source CFD Toolbox           |
|  \\    /   O peration     | Version:  5.x                                   |
|   \\  /    A nd           | Web:      www.OpenFOAM.org                      |
|    \\/     M anipulation  |                                                 |
\*---------------------------------------------------------------------------*/
FoamFile
{
    version     2.0;
    format      ascii;
    class       volVectorField;
    location    "14.8";
    object      U;
}
// * * * * * * * * * * * * * * * * * * * * * * * * * * * * * * * * * * * * * //

dimensions      [0 1 -1 0 0 0 0];

internalField   nonuniform List<vector> 
400
(
(-0.0145991 0.00669772 0)
(-0.0313858 0.00461132 0)
(-0.0392561 0.00352311 0)
(-0.0427951 3.14586e-05 0)
(-0.045659 0.000874848 0)
(-0.0457237 -0.00123563 0)
(-0.0472472 0.000330265 0)
(-0.0466327 -0.00104782 0)
(-0.0474052 0.000515505 0)
(-0.0477867 9.02924e-05 0)
(-0.0474299 -0.000119737 0)
(-0.0497677 0.000745957 0)
(-0.0473366 -0.000784327 0)
(-0.0522637 0.00110278 0)
(-0.0483489 -0.00106364 0)
(-0.052783 0.000528929 0)
(-0.047764 -0.00127719 0)
(-0.0458933 -0.00433869 0)
(-0.0448206 -0.00911838 0)
(-0.00414316 -0.019322 0)
(-0.00754551 0.0315454 0)
(-0.018755 0.021187 0)
(-0.01823 0.00748499 0)
(-0.0214476 0.00578144 0)
(-0.0200155 0.00151587 0)
(-0.0203318 0.00197491 0)
(-0.0205979 0.000450312 0)
(-0.0215529 0.00112589 0)
(-0.0195489 0.000298204 0)
(-0.0237985 0.000623281 0)
(-0.0170531 0.000811494 0)
(-0.026483 0.000692854 0)
(-0.0163657 0.00146233 0)
(-0.0257306 -0.000311886 0)
(-0.0173219 0.00116205 0)
(-0.0231121 -0.00171987 0)
(-0.0223563 -0.00108235 0)
(-0.0199541 -0.0108572 0)
(-0.0323781 -0.021835 0)
(-0.00351252 -0.0436861 0)
(-0.0064486 0.0367062 0)
(-0.00689295 0.021469 0)
(-0.00729768 0.00837964 0)
(-0.00670328 0.00325201 0)
(-0.00421172 -0.000498145 0)
(-0.00771944 -0.000325622 0)
(-0.00366757 0.000327857 0)
(-0.00853785 -0.000555181 0)
(-0.00478657 0.000612304 0)
(-0.00825849 -0.000243553 0)
(-0.00647282 0.000670949 0)
(-0.00805712 0.000639315 0)
(-0.00958978 -3.29571e-05 0)
(-0.00721142 -0.000192748 0)
(-0.0125829 -0.000348408 0)
(-0.00340958 0.00146928 0)
(-0.0136753 0.00179063 0)
(0.00234807 0.00107468 0)
(-0.0098536 -0.0071565 0)
(0.00120557 -0.0526215 0)
(-0.00296908 0.0426437 0)
(-0.00428106 0.0255918 0)
(-0.00254888 0.00581839 0)
(-0.00455169 0.00358029 0)
(-0.00158599 0.00195903 0)
(-0.0061807 0.00178379 0)
(-0.00407713 0.00142138 0)
(-0.00709629 0.00203934 0)
(-0.00548797 0.000694284 0)
(-0.0065163 0.00186242 0)
(-0.0054205 0.00104026 0)
(-0.00389492 0.0029152 0)
(-0.00613315 0.00154034 0)
(-0.00194943 0.00130286 0)
(-0.0072815 -0.000925521 0)
(-0.000284035 -0.0029895 0)
(-0.00543787 -0.00510249 0)
(-0.000705235 -0.0173878 0)
(-0.0106615 -0.0233715 0)
(0.00325392 -0.0573329 0)
(-0.00151881 0.0427197 0)
(-0.00226633 0.0221766 0)
(-0.00328517 0.00659673 0)
(-0.00321187 0.00172642 0)
(-0.00361829 0.00120487 0)
(-0.00474743 0.0015267 0)
(-0.00512315 0.00122258 0)
(-0.00565509 0.000773794 0)
(-0.00586373 -1.07652e-05 0)
(-0.00494433 -0.000200305 0)
(-0.00443091 -0.00183989 0)
(-0.000674354 0.000655137 0)
(-0.00535536 -0.000855258 0)
(0.001362 -0.000424567 0)
(-0.00570407 -0.000325192 0)
(0.000394079 -0.00195109 0)
(-0.0071429 0.0043725 0)
(0.00545857 0.00240404 0)
(-0.0027905 -0.00319915 0)
(0.00411232 -0.0578849 0)
(-0.00137831 0.0459655 0)
(-0.00134421 0.0260855 0)
(-0.00104358 0.00725642 0)
(-0.00226911 0.00404648 0)
(-0.00414586 0.00328559 0)
(-0.00501354 0.00355859 0)
(-0.00613466 0.00248504 0)
(-0.00675454 0.00242389 0)
(-0.00705846 0.000514516 0)
(-0.00599869 -0.000205119 0)
(-0.00449466 -0.00242939 0)
(-0.00121744 0.00364382 0)
(-0.00615211 0.000148032 0)
(0.000375604 0.00116507 0)
(-0.00658273 0.00089243 0)
(-6.23875e-06 -0.00250181 0)
(-0.00741915 -0.00930408 0)
(0.00284034 -0.021409 0)
(-0.00805011 -0.0250171 0)
(0.00535362 -0.0602847 0)
(-0.000446125 0.044587 0)
(-0.000552267 0.0249002 0)
(-0.000550009 0.00722427 0)
(-0.00180847 0.00521195 0)
(-0.00283322 0.00408992 0)
(-0.00508134 0.00369118 0)
(-0.00550094 0.00349316 0)
(-0.00756807 0.00149437 0)
(-0.00743025 -0.000159977 0)
(-0.00427031 -0.00327298 0)
(-0.00236282 -0.00672927 0)
(-9.65561e-06 0.0010372 0)
(-0.00636852 -0.00167715 0)
(0.00167694 -0.00115566 0)
(-0.00690662 0.00115789 0)
(0.00499457 -0.00328174 0)
(-0.00588623 0.00345107 0)
(0.00360926 0.000789486 0)
(-0.00464332 -0.00188338 0)
(0.00544793 -0.0580532 0)
(6.76779e-05 0.047521 0)
(4.27857e-05 0.025122 0)
(-0.000636755 0.0078054 0)
(-0.00153655 0.00628477 0)
(-0.00391045 0.00577838 0)
(-0.00717349 0.00580445 0)
(-0.0084145 0.00488219 0)
(-0.00856031 0.00356239 0)
(-0.00914017 -0.00200897 0)
(-0.00412702 -0.00629425 0)
(-0.00186113 -0.00440513 0)
(-0.00518312 0.00742443 0)
(-0.00764614 -0.000524756 0)
(-0.00473422 0.00120218 0)
(-0.0076386 -0.00157811 0)
(-0.002616 -0.00293173 0)
(-0.0127536 -0.00781795 0)
(0.00282789 -0.0226178 0)
(-0.00881929 -0.026948 0)
(0.00678171 -0.0624877 0)
(-0.000823229 0.043092 0)
(0.00195417 0.0246662 0)
(0.000883278 0.00978694 0)
(-0.00149351 0.00765608 0)
(-0.00424254 0.010583 0)
(-0.00569435 0.0084551 0)
(-0.00879616 0.00572531 0)
(-0.00997706 0.0024917 0)
(-0.00839436 -0.00356852 0)
(-0.00452828 -0.0122879 0)
(-0.00288478 -0.00635453 0)
(-0.0048944 0.00510046 0)
(-0.00636565 -0.0017717 0)
(-0.00299931 -0.0022799 0)
(-0.00816179 -0.000581787 0)
(-0.00509815 -0.000479914 0)
(-0.00780078 -0.000417217 0)
(-0.00281768 -0.00574878 0)
(-0.00672067 -0.00663766 0)
(0.00505646 -0.0609379 0)
(0.00107643 0.0460563 0)
(-0.000471385 0.0268779 0)
(-0.000140953 0.0104696 0)
(-0.00340498 0.0128362 0)
(-0.00736947 0.00864951 0)
(-0.00586271 0.0100223 0)
(-0.0101436 0.00922693 0)
(-0.0139654 0.00304675 0)
(-0.0130083 -0.00736064 0)
(-0.0137669 -0.0114669 0)
(-0.0102871 -0.00117324 0)
(-0.00957145 0.0103462 0)
(-0.00834599 -0.00223558 0)
(-0.00637417 0.00320616 0)
(-0.00647064 0.00209213 0)
(-0.00479165 -0.00341168 0)
(-0.00270093 -0.00819242 0)
(0.00181059 -0.0239598 0)
(-0.00785105 -0.0344303 0)
(0.00542062 -0.0646358 0)
(-0.00234553 0.0436215 0)
(0.00108362 0.0221857 0)
(-0.00167684 0.0124172 0)
(-0.00377942 0.0130296 0)
(0.000882031 0.0132743 0)
(-0.00573999 0.0110349 0)
(-0.00869379 0.0140109 0)
(-0.0147693 0.00667365 0)
(-0.0160736 -0.00544355 0)
(-0.0177898 -0.0154094 0)
(-0.0158253 -0.0110186 0)
(-0.00289895 0.00478322 0)
(0.00127333 -0.00623141 0)
(0.0032603 -0.00593112 0)
(-0.00193056 -0.00148813 0)
(0.00376632 -0.0068792 0)
(-0.00361806 -0.00776574 0)
(0.00941873 -0.0024376 0)
(-0.00352738 -0.00943505 0)
(0.00411786 -0.0603567 0)
(0.0020236 0.0448432 0)
(-0.0016854 0.0289963 0)
(-0.000675127 0.0151526 0)
(0.00366708 0.0123352 0)
(0.00218587 0.0119556 0)
(-0.0041547 0.0181068 0)
(-0.0105342 0.0182719 0)
(-0.0111029 0.0090599 0)
(-0.0160569 -0.00264925 0)
(-0.0133578 -0.0137377 0)
(-0.0186812 -0.0161021 0)
(-0.00422506 -0.00707357 0)
(0.00215272 -0.00570352 0)
(0.00393501 0.00628787 0)
(0.00357923 0.00287152 0)
(0.00982198 -1.226e-05 0)
(-0.00347274 -0.0115147 0)
(0.00689044 -0.0211307 0)
(-0.00264729 -0.0267744 0)
(0.00535018 -0.0638095 0)
(-0.00149283 0.0453273 0)
(0.00149628 0.0238342 0)
(0.00165159 0.00688285 0)
(0.0012492 0.00870633 0)
(-0.0012275 0.0192483 0)
(-8.86336e-05 0.0217301 0)
(-0.00374057 0.0199371 0)
(-0.00294082 0.0101084 0)
(-0.00696206 -0.000532154 0)
(-0.000778451 -0.0138904 0)
(-0.00496079 -0.0200694 0)
(-0.00259483 -0.0203142 0)
(0.003447 -0.0175306 0)
(0.00852023 -0.00889523 0)
(0.00287095 -0.00758081 0)
(0.0111592 -0.00199177 0)
(-0.00504988 -0.00488338 0)
(-0.00157052 -0.0058556 0)
(-0.00465791 -0.0117013 0)
(0.00354137 -0.0609527 0)
(0.000943171 0.0445142 0)
(-4.3669e-05 0.0271171 0)
(0.00426022 0.015777 0)
(4.91424e-05 0.0169722 0)
(0.00445125 0.016098 0)
(0.00686996 0.0205867 0)
(0.0050162 0.0241775 0)
(0.00872359 0.0139273 0)
(0.00524252 -0.00179874 0)
(0.00900069 -0.0145694 0)
(0.0022014 -0.0117876 0)
(5.86173e-05 -0.0142102 0)
(0.00334194 -0.0101296 0)
(-0.00892889 0.00610115 0)
(-0.0013163 0.00337591 0)
(-0.0116791 0.00839137 0)
(-0.00547116 3.49089e-05 0)
(-0.00276337 -0.0187771 0)
(-0.00376595 -0.0284117 0)
(0.00495457 -0.0642813 0)
(0.000115361 0.0430641 0)
(0.00237892 0.0206388 0)
(0.000997384 0.00634555 0)
(0.00600912 0.00606994 0)
(0.00906306 0.011722 0)
(0.00925198 0.0198945 0)
(0.0116566 0.0190196 0)
(0.0203822 0.00750791 0)
(0.0179958 1.83001e-05 0)
(0.0229037 -0.0123437 0)
(0.0169485 -0.011374 0)
(0.0213303 -0.0221299 0)
(0.0176792 -0.0123576 0)
(0.0145604 -0.00233627 0)
(0.0123402 -0.00871962 0)
(0.00747772 0.00274661 0)
(0.0124165 -0.0159773 0)
(0.00745503 -0.0138272 0)
(-0.00648834 -0.0242072 0)
(0.00411622 -0.06139 0)
(0.00266372 0.0429304 0)
(0.00456865 0.0255166 0)
(0.00692643 0.0129222 0)
(0.00718544 0.0108962 0)
(0.00425105 0.0141664 0)
(0.0194463 0.0164511 0)
(0.0135825 0.0142497 0)
(0.0306939 0.00765664 0)
(0.0238938 -0.000814922 0)
(0.036857 -0.0107989 0)
(0.0251349 -0.0154546 0)
(0.0360352 -0.0133092 0)
(0.00282559 -0.0107454 0)
(0.0279589 0.0133856 0)
(0.00410049 0.0118205 0)
(0.0125655 0.00732872 0)
(0.00652849 0.00883295 0)
(0.00915788 0.0028211 0)
(-0.000328564 -0.0145848 0)
(0.00833969 -0.0617829 0)
(0.000326051 0.0361002 0)
(0.00363026 0.0179839 0)
(0.00700021 0.00485896 0)
(0.00823492 0.00785566 0)
(0.00932833 -0.0010055 0)
(0.0186028 0.00866158 0)
(0.0216312 0.00749988 0)
(0.0257713 -0.00184486 0)
(0.0330104 -0.00524442 0)
(0.0310565 -0.01406 0)
(0.0286695 -0.00344328 0)
(0.0143255 0.000939587 0)
(-0.0123889 -0.0049269 0)
(-0.0119673 0.00105055 0)
(-0.00209806 0.00233924 0)
(0.000110533 -0.00178416 0)
(-0.00518977 -0.0149183 0)
(0.0223574 -0.0120687 0)
(-0.00723216 -0.0340031 0)
(0.00540759 -0.0608675 0)
(0.00562009 0.0353025 0)
(0.0080825 0.0193068 0)
(0.00745523 0.0066711 0)
(0.0122205 0.0080518 0)
(0.0111576 0.00472366 0)
(0.0116962 0.0024728 0)
(0.0223692 0.00381807 0)
(0.0218067 -0.00275513 0)
(0.0339758 -0.00958336 0)
(0.0233218 -0.0103721 0)
(0.0306161 0.00408126 0)
(0.023946 0.0165726 0)
(0.0285512 0.020118 0)
(0.0145346 0.00716004 0)
(0.0121282 -0.00282005 0)
(0.0176086 0.0118701 0)
(0.0101336 -0.00677972 0)
(0.0122461 0.00475649 0)
(-0.00173813 0.015874 0)
(0.017266 -0.0541668 0)
(0.000298743 0.0256434 0)
(0.0157648 0.0146641 0)
(0.0135145 0.00401911 0)
(0.0122306 0.00213888 0)
(0.0142237 0.00103485 0)
(0.00923916 -0.00150229 0)
(0.00562494 -0.00368268 0)
(0.00473176 -0.00851181 0)
(-0.0123544 -0.00979952 0)
(-0.0234062 -0.00854447 0)
(-0.0283117 -0.00217986 0)
(-0.0147916 0.00362892 0)
(-0.0145116 0.00617147 0)
(0.00838856 0.0121287 0)
(-0.00403308 -0.000586665 0)
(0.00122759 0.00439378 0)
(0.0102989 -0.0120393 0)
(-0.0163018 -0.00890445 0)
(0.0192566 -0.0427578 0)
(0.0147975 -0.0662776 0)
(0.00856803 0.0180618 0)
(0.0300347 0.0123434 0)
(0.0354437 0.00919397 0)
(0.0447693 0.00848259 0)
(0.0436854 0.00731155 0)
(0.0548034 0.0082197 0)
(0.0512228 0.00933023 0)
(0.0610098 0.0102995 0)
(0.0556137 0.0149669 0)
(0.0619621 0.00890133 0)
(0.0599718 0.0061456 0)
(0.0638257 -0.00453123 0)
(0.0613117 0.00176102 0)
(0.0641075 -0.00636631 0)
(0.0666704 0.00403178 0)
(0.0715276 -0.00262057 0)
(0.0697806 0.00752575 0)
(0.0670612 0.00258529 0)
(0.0548022 -0.000551988 0)
(0.0330703 0.00259049 0)
)
;

boundaryField
{
    movingWall
    {
        type            fixedValue;
        value           uniform (1 0 0);
    }
    fixedWalls
    {
        type            noSlip;
    }
    frontAndBack
    {
        type            empty;
    }
}


// ************************************************************************* //
