/*--------------------------------*- C++ -*----------------------------------*\
| =========                 |                                                 |
| \\      /  F ield         | OpenFOAM: The Open Source CFD Toolbox           |
|  \\    /   O peration     | Version:  5.x                                   |
|   \\  /    A nd           | Web:      www.OpenFOAM.org                      |
|    \\/     M anipulation  |                                                 |
\*---------------------------------------------------------------------------*/
FoamFile
{
    version     2.0;
    format      ascii;
    class       volScalarField;
    location    "2";
    object      p;
}
// * * * * * * * * * * * * * * * * * * * * * * * * * * * * * * * * * * * * * //

dimensions      [0 2 -2 0 0 0 0];

internalField   nonuniform List<scalar> 
400
(
1.72455e-11
1.74313e-07
5.54684e-07
1.1467e-06
1.96467e-06
3.02442e-06
4.34146e-06
5.92812e-06
7.79039e-06
9.92429e-06
1.23121e-05
1.4919e-05
1.76898e-05
2.05418e-05
2.33696e-05
2.60464e-05
2.8431e-05
3.03777e-05
3.17547e-05
3.24489e-05
-2.0258e-07
-3.33687e-08
3.37922e-07
9.17759e-07
1.72205e-06
2.76872e-06
4.07578e-06
5.65844e-06
7.52584e-06
9.6773e-06
1.20982e-05
1.4756e-05
1.76007e-05
2.05481e-05
2.34887e-05
2.62895e-05
2.88001e-05
3.08619e-05
3.23279e-05
3.30695e-05
-6.36417e-07
-4.77589e-07
-1.24715e-07
4.30522e-07
1.20728e-06
2.22773e-06
3.51498e-06
5.09018e-06
6.96901e-06
9.15772e-06
1.16485e-05
1.44147e-05
1.74108e-05
2.05539e-05
2.37304e-05
2.67952e-05
2.9577e-05
3.18887e-05
3.35499e-05
3.43966e-05
-1.28817e-06
-1.14616e-06
-8.2331e-07
-3.08488e-07
4.22413e-07
1.39799e-06
2.64914e-06
4.20605e-06
6.09454e-06
8.33177e-06
1.09209e-05
1.38449e-05
1.70686e-05
2.05123e-05
2.40584e-05
2.75444e-05
3.07668e-05
3.34919e-05
3.5482e-05
3.65094e-05
-2.14619e-06
-2.02934e-06
-1.75175e-06
-1.29843e-06
-6.38512e-07
2.65332e-07
1.45459e-06
2.97179e-06
4.85688e-06
7.14274e-06
9.84942e-06
1.29759e-05
1.64965e-05
2.03483e-05
2.44124e-05
2.85067e-05
3.23832e-05
3.57394e-05
3.8246e-05
3.9568e-05
-3.19181e-06
-3.11111e-06
-2.89891e-06
-2.53526e-06
-1.98056e-06
-1.18634e-06
-9.76946e-08
1.34364e-06
3.19586e-06
5.51278e-06
8.33821e-06
1.16994e-05
1.55738e-05
1.99424e-05
2.46893e-05
2.96171e-05
3.44264e-05
3.87168e-05
4.20172e-05
4.38208e-05
-4.39746e-06
-4.36746e-06
-4.24718e-06
-4.01062e-06
-3.60702e-06
-2.97435e-06
-2.04158e-06
-7.31471e-07
1.03647e-06
3.34218e-06
6.2595e-06
9.84731e-06
1.41286e-05
1.91157e-05
2.47212e-05
3.07512e-05
3.68597e-05
4.25189e-05
4.70391e-05
4.96579e-05
-5.72328e-06
-5.76336e-06
-5.76985e-06
-5.70938e-06
-5.51707e-06
-5.11484e-06
-4.41321e-06
-3.31331e-06
-1.70889e-06
5.11091e-07
3.45801e-06
7.23512e-06
1.19295e-05
1.76075e-05
2.4242e-05
3.16793e-05
3.95581e-05
4.72185e-05
5.36271e-05
5.76975e-05
-7.11267e-06
-7.24929e-06
-7.42824e-06
-7.60708e-06
-7.70306e-06
-7.6198e-06
-7.24753e-06
-6.46424e-06
-5.13586e-06
-3.11635e-06
-2.48959e-07
3.62914e-06
8.67583e-06
1.50489e-05
2.28401e-05
3.1997e-05
4.22206e-05
5.27888e-05
6.21429e-05
6.89364e-05
-8.48631e-06
-8.75723e-06
-9.16858e-06
-9.66739e-06
-1.01479e-05
-1.04936e-05
-1.05737e-05
-1.02433e-05
-9.34106e-06
-7.68559e-06
-5.0709e-06
-1.26203e-06
4.01304e-06
1.09438e-05
1.99029e-05
3.10182e-05
4.4213e-05
5.89004e-05
7.28703e-05
8.49921e-05
-9.72873e-06
-1.01969e-05
-1.09185e-05
-1.18408e-05
-1.28233e-05
-1.37299e-05
-1.441e-05
-1.46981e-05
-1.44105e-05
-1.33366e-05
-1.12285e-05
-7.78952e-06
-2.66446e-06
4.51845e-06
1.45083e-05
2.76087e-05
4.4304e-05
6.45497e-05
8.55509e-05
0.000108399
-1.06974e-05
-1.14509e-05
-1.25838e-05
-1.40601e-05
-1.56864e-05
-1.73087e-05
-1.87585e-05
-1.9855e-05
-2.04017e-05
-2.01716e-05
-1.88872e-05
-1.61932e-05
-1.15932e-05
-4.39169e-06
6.04733e-06
2.02797e-05
4.03505e-05
6.73006e-05
9.81463e-05
0.000142626
-1.107e-05
-1.24408e-05
-1.40469e-05
-1.62954e-05
-1.87042e-05
-2.12088e-05
-2.36079e-05
-2.57138e-05
-2.73335e-05
-2.82485e-05
-2.81913e-05
-2.68223e-05
-2.36809e-05
-1.80919e-05
-9.09039e-06
4.7726e-06
2.71567e-05
6.16831e-05
0.00010192
0.000187146
-1.09624e-05
-1.24165e-05
-1.50229e-05
-1.80284e-05
-2.16141e-05
-2.52779e-05
-2.88796e-05
-3.22147e-05
-3.51395e-05
-3.7473e-05
-3.89696e-05
-3.93163e-05
-3.80827e-05
-3.45815e-05
-2.76101e-05
-1.47664e-05
6.60526e-06
4.25588e-05
7.53501e-05
0.000219926
-8.80786e-06
-1.50064e-05
-1.62281e-05
-2.24816e-05
-2.59978e-05
-3.05041e-05
-3.49454e-05
-3.94422e-05
-4.38081e-05
-4.78619e-05
-5.14548e-05
-5.44516e-05
-5.66518e-05
-5.79619e-05
-5.74459e-05
-5.4424e-05
-5.28918e-05
-1.84605e-05
-5.79318e-05
0.000161365
-6.51781e-06
-8.54232e-06
-1.38018e-05
-1.73372e-05
-2.44301e-05
-3.10427e-05
-3.83213e-05
-4.5409e-05
-5.21119e-05
-5.82588e-05
-6.38936e-05
-6.92329e-05
-7.43648e-05
-7.99917e-05
-8.59183e-05
-9.29098e-05
-0.000117554
-8.3061e-05
-0.000245836
2.89385e-05
6.76232e-06
-1.38227e-05
-1.85673e-05
-3.38417e-05
-3.66239e-05
-4.54358e-05
-5.16746e-05
-5.84964e-05
-6.54276e-05
-7.2509e-05
-7.97108e-05
-8.80391e-05
-9.63315e-05
-0.000109757
-0.000125699
-0.000137922
-0.000199861
-0.000178382
-0.000321767
-9.0129e-05
5.7958e-07
-1.16383e-05
-1.15183e-05
-1.49688e-05
-2.28443e-05
-3.22684e-05
-4.43712e-05
-5.58047e-05
-6.72126e-05
-7.76293e-05
-8.75085e-05
-9.80569e-05
-0.000108345
-0.000123596
-0.000146485
-0.000163512
-0.000245936
-0.00031169
-0.000364156
-8.4083e-05
6.02195e-05
-1.52745e-05
-2.03129e-05
-4.76593e-05
-4.63309e-05
-6.37876e-05
-7.21428e-05
-8.22571e-05
-9.21608e-05
-0.000103002
-0.000107764
-0.000127781
-0.000120951
-0.000152325
-0.000184186
-0.000178212
-0.000339928
-0.000438797
-0.000402184
0.000158558
-6.29864e-05
1.06455e-05
2.22339e-05
-4.28697e-06
-2.57607e-05
-3.96736e-05
-5.7587e-05
-6.87396e-05
-8.64916e-05
-9.69991e-05
-0.000105562
-0.000118768
-0.000122818
-0.00013854
-0.00015792
-0.000178624
-0.000185459
-0.000114178
0.000325211
0.00149418
)
;

boundaryField
{
    movingWall
    {
        type            zeroGradient;
    }
    fixedWalls
    {
        type            zeroGradient;
    }
    frontAndBack
    {
        type            empty;
    }
}


// ************************************************************************* //
