/*--------------------------------*- C++ -*----------------------------------*\
| =========                 |                                                 |
| \\      /  F ield         | OpenFOAM: The Open Source CFD Toolbox           |
|  \\    /   O peration     | Version:  5.x                                   |
|   \\  /    A nd           | Web:      www.OpenFOAM.org                      |
|    \\/     M anipulation  |                                                 |
\*---------------------------------------------------------------------------*/
FoamFile
{
    version     2.0;
    format      ascii;
    class       surfaceScalarField;
    location    "2";
    object      phi;
}
// * * * * * * * * * * * * * * * * * * * * * * * * * * * * * * * * * * * * * //

dimensions      [0 3 -1 0 0 0 0];

internalField   nonuniform List<scalar> 
760
(
-6.10657e-09
6.10657e-09
-1.23266e-08
6.22008e-09
-1.83532e-08
6.02654e-09
-2.40849e-08
5.73167e-09
-2.94189e-08
5.33401e-09
-3.42499e-08
4.83108e-09
-3.84701e-08
4.22012e-09
-4.19686e-08
3.49858e-09
-4.46334e-08
2.66472e-09
-4.63521e-08
1.71873e-09
-4.70169e-08
6.64773e-10
-4.6518e-08
-4.98864e-10
-4.47707e-08
-1.74728e-09
-4.17199e-08
-3.0508e-09
-3.73509e-08
-4.36904e-09
-3.17044e-08
-5.64645e-09
-2.48904e-08
-6.81404e-09
-1.70985e-08
-7.79194e-09
-8.6029e-09
-8.49556e-09
-8.60289e-09
-6.4189e-09
1.25255e-08
-1.29551e-08
1.27562e-08
-1.92893e-08
1.23608e-08
-2.5316e-08
1.17584e-08
-3.09284e-08
1.09464e-08
-3.60174e-08
9.92011e-09
-4.04713e-08
8.67399e-09
-4.41754e-08
7.20273e-09
-4.70132e-08
5.50244e-09
-4.88674e-08
3.57297e-09
-4.96254e-08
1.42274e-09
-4.91716e-08
-9.52642e-10
-4.73981e-08
-3.52076e-09
-4.42433e-08
-6.20557e-09
-3.96831e-08
-8.92926e-09
-3.37484e-08
-1.15812e-08
-2.65434e-08
-1.4019e-08
-1.82629e-08
-1.60725e-08
-9.20046e-09
-1.7558e-08
-1.78034e-08
-6.61521e-09
1.91407e-08
-1.33576e-08
1.94987e-08
-1.99004e-08
1.89036e-08
-2.61394e-08
1.79973e-08
-3.19685e-08
1.67755e-08
-3.72792e-08
1.52308e-08
-4.19594e-08
1.33542e-08
-4.58932e-08
1.11365e-08
-4.89605e-08
8.56975e-09
-5.1038e-08
5.6504e-09
-5.20013e-08
2.38606e-09
-5.17219e-08
-1.23198e-09
-5.00687e-08
-5.17402e-09
-4.69506e-08
-9.3236e-09
-4.23125e-08
-1.35674e-08
-3.61559e-08
-1.77378e-08
-2.85638e-08
-2.16111e-08
-1.97273e-08
-2.49089e-08
-9.9653e-09
-2.73201e-08
-2.77687e-08
-6.90456e-09
2.60452e-08
-1.39514e-08
2.65455e-08
-2.08029e-08
2.57551e-08
-2.7357e-08
2.45514e-08
-3.35094e-08
2.2928e-08
-3.91526e-08
2.0874e-08
-4.41748e-08
1.83764e-08
-4.84585e-08
1.54203e-08
-5.18796e-08
1.19909e-08
-5.43064e-08
8.07712e-09
-5.56003e-08
3.68003e-09
-5.56175e-08
-1.21485e-09
-5.41805e-08
-6.61101e-09
-5.11562e-08
-1.23479e-08
-4.64362e-08
-1.82874e-08
-3.99699e-08
-2.4204e-08
-3.17976e-08
-2.97834e-08
-2.20941e-08
-3.46124e-08
-1.12122e-08
-3.8202e-08
-3.89808e-08
-7.28791e-09
3.33332e-08
-1.47388e-08
3.39964e-08
-2.20005e-08
3.30168e-08
-2.8974e-08
3.15249e-08
-3.55576e-08
2.95115e-08
-4.16458e-08
2.69622e-08
-4.71281e-08
2.38587e-08
-5.18871e-08
2.01792e-08
-5.57952e-08
1.5899e-08
-5.8712e-08
1.0994e-08
-6.04821e-08
5.45009e-09
-6.09466e-08
-7.504e-10
-5.98633e-08
-7.69429e-09
-5.70403e-08
-1.51709e-08
-5.22864e-08
-2.30413e-08
-4.54611e-08
-3.10293e-08
-3.6525e-08
-3.87196e-08
-2.56055e-08
-4.55319e-08
-1.30891e-08
-5.07183e-08
-5.20699e-08
-7.76137e-09
4.10945e-08
-1.57127e-08
4.19477e-08
-2.34833e-08
4.07874e-08
-3.09782e-08
3.90199e-08
-3.80991e-08
3.66324e-08
-4.47437e-08
3.36069e-08
-5.08052e-08
2.99202e-08
-5.61685e-08
2.55425e-08
-6.0706e-08
2.04365e-08
-6.4271e-08
1.45589e-08
-6.66881e-08
7.86716e-09
-6.78007e-08
3.62198e-10
-6.72681e-08
-8.22686e-09
-6.48335e-08
-1.76055e-08
-6.01825e-08
-2.76923e-08
-5.30261e-08
-3.81857e-08
-4.3179e-08
-4.85667e-08
-3.06558e-08
-5.8055e-08
-1.58538e-08
-6.55204e-08
-6.79238e-08
-8.31917e-09
4.94137e-08
-1.68629e-08
5.04915e-08
-2.52374e-08
4.91618e-08
-3.33526e-08
4.71352e-08
-4.11138e-08
4.43936e-08
-4.84236e-08
4.09167e-08
-5.51813e-08
3.66779e-08
-6.12791e-08
3.16403e-08
-6.6596e-08
2.57534e-08
-7.09881e-08
1.8951e-08
-7.42776e-08
1.11566e-08
-7.62352e-08
2.31989e-09
-7.65569e-08
-7.90517e-09
-7.48175e-08
-1.9345e-08
-7.05487e-08
-3.19611e-08
-6.32343e-08
-4.55e-08
-5.2424e-08
-5.93771e-08
-3.78891e-08
-7.25898e-08
-1.99664e-08
-8.34431e-08
-8.78901e-08
-8.95281e-09
5.83665e-08
-1.81752e-08
5.97139e-08
-2.72445e-08
5.82311e-08
-3.60754e-08
5.5966e-08
-4.45759e-08
5.2894e-08
-5.2654e-08
4.89948e-08
-6.02186e-08
4.42425e-08
-6.71756e-08
3.85973e-08
-7.34202e-08
3.1998e-08
-7.88235e-08
2.43543e-08
-8.32133e-08
1.55464e-08
-8.63369e-08
5.44352e-09
-8.7892e-08
-6.35007e-09
-8.73062e-08
-1.99308e-08
-8.39141e-08
-3.53532e-08
-7.68717e-08
-5.25424e-08
-6.52679e-08
-7.09809e-08
-4.83665e-08
-8.94912e-08
-2.62761e-08
-1.05534e-07
-1.14166e-07
-9.64865e-09
6.80152e-08
-1.96295e-08
6.96947e-08
-2.94815e-08
6.80832e-08
-3.91209e-08
6.56053e-08
-4.84547e-08
6.22278e-08
-5.73955e-08
5.79357e-08
-6.58649e-08
5.27119e-08
-7.37907e-08
4.65231e-08
-8.10978e-08
3.93051e-08
-8.76913e-08
3.09479e-08
-9.34296e-08
2.12847e-08
-9.80815e-08
1.00954e-08
-1.01369e-07
-3.06281e-09
-1.02591e-07
-1.87081e-08
-1.00883e-07
-3.70618e-08
-9.49711e-08
-5.84542e-08
-8.32208e-08
-8.27312e-08
-6.38661e-08
-1.08846e-07
-3.64145e-08
-1.32985e-07
-1.50581e-07
-1.03839e-08
7.83991e-08
-2.11968e-08
8.05076e-08
-3.19192e-08
7.88056e-08
-4.24609e-08
7.6147e-08
-5.27187e-08
7.24857e-08
-6.26052e-08
6.78221e-08
-7.20565e-08
6.21632e-08
-8.10319e-08
5.54985e-08
-8.95038e-08
4.7777e-08
-9.74393e-08
3.88833e-08
-1.04768e-07
2.86133e-08
-1.11322e-07
1.66493e-08
-1.16922e-07
2.53775e-09
-1.2083e-07
-1.47998e-08
-1.2204e-07
-3.58527e-08
-1.18797e-07
-6.16972e-08
-1.08452e-07
-9.30753e-08
-8.74137e-08
-1.29885e-07
-5.36538e-08
-1.66745e-07
-2.04235e-07
-1.10994e-08
8.94984e-08
-2.283e-08
9.22382e-08
-3.45187e-08
9.04944e-08
-4.60692e-08
8.76975e-08
-5.73436e-08
8.37601e-08
-6.82452e-08
7.87237e-08
-7.87256e-08
7.26436e-08
-8.87848e-08
6.55577e-08
-9.8462e-08
5.74542e-08
-1.07817e-07
4.82385e-08
-1.16902e-07
3.76984e-08
-1.25714e-07
2.54611e-08
-1.34159e-07
1.0983e-08
-1.41912e-07
-7.04754e-09
-1.47754e-07
-3.00106e-08
-1.49692e-07
-5.97587e-08
-1.43877e-07
-9.88904e-08
-1.2401e-07
-1.49751e-07
-8.48454e-08
-2.0591e-07
-2.8908e-07
-1.17706e-08
1.01269e-07
-2.44906e-08
1.04958e-07
-3.72439e-08
1.03248e-07
-4.99295e-08
1.00383e-07
-6.2324e-08
9.61546e-08
-7.42983e-08
9.0698e-08
-8.5817e-08
8.41622e-08
-9.69294e-08
7.66701e-08
-1.07764e-07
6.82886e-08
-1.18513e-07
5.89879e-08
-1.29423e-07
4.86088e-08
-1.40813e-07
3.68505e-08
-1.52703e-07
2.28731e-08
-1.64809e-07
5.05894e-09
-1.77461e-07
-1.73591e-08
-1.88453e-07
-4.87668e-08
-1.92892e-07
-9.44516e-08
-1.80789e-07
-1.61854e-07
-1.44764e-07
-2.41935e-07
-4.33844e-07
-1.1623e-08
1.12892e-07
-2.60387e-08
1.19374e-07
-3.99412e-08
1.1715e-07
-5.40831e-08
1.14525e-07
-6.77225e-08
1.09794e-07
-8.08106e-08
1.03786e-07
-9.33185e-08
9.66702e-08
-1.05357e-07
8.87083e-08
-1.17148e-07
8.00802e-08
-1.29005e-07
7.08445e-08
-1.41318e-07
6.09223e-08
-1.54557e-07
5.00894e-08
-1.6966e-07
3.79758e-08
-1.88068e-07
2.34672e-08
-2.10318e-07
4.89073e-09
-2.3474e-07
-2.43445e-08
-2.59593e-07
-6.95993e-08
-2.68806e-07
-1.52641e-07
-2.60904e-07
-2.49838e-07
-6.94747e-07
-1.38658e-08
1.26758e-07
-2.76563e-08
1.33164e-07
-4.28978e-08
1.32392e-07
-5.82723e-08
1.29899e-07
-7.34414e-08
1.24963e-07
-8.77727e-08
1.18117e-07
-1.01247e-07
1.10145e-07
-1.14038e-07
1.01499e-07
-1.26542e-07
9.25846e-08
-1.39335e-07
8.3637e-08
-1.53285e-07
7.48725e-08
-1.6937e-07
6.61742e-08
-1.88713e-07
5.73192e-08
-2.12882e-07
4.7636e-08
-2.4284e-07
3.48492e-08
-2.82002e-07
1.48173e-08
-3.3683e-07
-1.47719e-08
-3.88938e-07
-1.00532e-07
-4.37441e-07
-2.01335e-07
-1.13219e-06
-2.14838e-09
1.28906e-07
-2.78198e-08
1.58836e-07
-4.47623e-08
1.49334e-07
-6.55162e-08
1.50653e-07
-8.15105e-08
1.40957e-07
-9.65687e-08
1.33176e-07
-1.10225e-07
1.23801e-07
-1.23076e-07
1.14351e-07
-1.35449e-07
1.04958e-07
-1.47558e-07
9.57461e-08
-1.59971e-07
8.72854e-08
-1.74014e-07
8.02169e-08
-1.92073e-07
7.53778e-08
-2.18557e-07
7.41208e-08
-2.58338e-07
7.46297e-08
-3.1972e-07
7.61996e-08
-4.18092e-07
8.36004e-08
-4.92271e-07
-2.6354e-08
-5.30167e-07
-1.63438e-07
-1.66236e-06
-2.72878e-08
1.56194e-07
-2.95887e-08
1.61137e-07
-4.82153e-08
1.67961e-07
-6.46717e-08
1.6711e-07
-8.30893e-08
1.59375e-07
-1.00367e-07
1.50453e-07
-1.16567e-07
1.40001e-07
-1.31216e-07
1.28999e-07
-1.44788e-07
1.1853e-07
-1.57795e-07
1.08753e-07
-1.71725e-07
1.01215e-07
-1.87948e-07
9.644e-08
-2.08532e-07
9.59623e-08
-2.38006e-07
1.03594e-07
-2.8114e-07
1.17764e-07
-3.35042e-07
1.30101e-07
-4.19869e-07
1.68427e-07
-4.75654e-07
2.94311e-08
-3.34904e-07
-3.04188e-07
-1.99726e-06
2.86238e-08
1.2757e-07
-3.66477e-08
2.26408e-07
-7.06556e-08
2.01968e-07
-9.67508e-08
1.93205e-07
-1.13347e-07
1.75972e-07
-1.2741e-07
1.64516e-07
-1.38278e-07
1.50869e-07
-1.47501e-07
1.38222e-07
-1.56277e-07
1.27306e-07
-1.6333e-07
1.15807e-07
-1.69317e-07
1.07201e-07
-1.75011e-07
1.02135e-07
-1.7686e-07
9.78112e-08
-1.9058e-07
1.17314e-07
-2.15442e-07
1.42626e-07
-2.72155e-07
1.86815e-07
-3.93538e-07
2.8981e-07
-4.90717e-07
1.2661e-07
-1.58824e-07
-6.3608e-07
-2.15608e-06
1.13671e-07
1.38995e-08
1.02478e-07
2.37601e-07
8.21819e-08
2.22264e-07
1.59011e-08
2.59486e-07
-2.59655e-08
2.17838e-07
-6.89653e-08
2.07516e-07
-1.01697e-07
1.83601e-07
-1.26921e-07
1.63445e-07
-1.48868e-07
1.49253e-07
-1.63519e-07
1.30457e-07
-1.77249e-07
1.20932e-07
-1.88467e-07
1.13353e-07
-1.97023e-07
1.06367e-07
-2.13509e-07
1.338e-07
-2.45447e-07
1.74563e-07
-2.74675e-07
2.16044e-07
-2.90861e-07
3.05996e-07
-2.92973e-07
1.28721e-07
1.34685e-08
-9.42521e-07
-2.14262e-06
-4.68226e-07
4.82126e-07
-5.32049e-07
3.01423e-07
-5.70006e-07
2.60222e-07
-5.32403e-07
2.21882e-07
-5.10569e-07
1.96005e-07
-4.70517e-07
1.67463e-07
-4.3916e-07
1.52244e-07
-4.00423e-07
1.24709e-07
-3.71506e-07
1.20336e-07
-3.38814e-07
9.77654e-08
-3.01795e-07
8.39128e-08
-2.79534e-07
9.10916e-08
-2.20953e-07
4.77867e-08
-1.87353e-07
1.00199e-07
-6.09215e-08
4.81321e-08
6.54071e-08
8.97149e-08
3.16855e-07
5.45471e-08
5.83421e-07
-1.37844e-07
5.12583e-07
-8.71684e-07
-1.63003e-06
4.82126e-07
7.83549e-07
1.04377e-06
1.26565e-06
1.46166e-06
1.62912e-06
1.78137e-06
1.90607e-06
2.02641e-06
2.12418e-06
2.20809e-06
2.29918e-06
2.34697e-06
2.44717e-06
2.4953e-06
2.58501e-06
2.63956e-06
2.50172e-06
1.63003e-06
)
;

boundaryField
{
    movingWall
    {
        type            calculated;
        value           uniform 0;
    }
    fixedWalls
    {
        type            calculated;
        value           uniform 0;
    }
    frontAndBack
    {
        type            empty;
        value           nonuniform 0();
    }
}


// ************************************************************************* //
