/*--------------------------------*- C++ -*----------------------------------*\
| =========                 |                                                 |
| \\      /  F ield         | OpenFOAM: The Open Source CFD Toolbox           |
|  \\    /   O peration     | Version:  5.x                                   |
|   \\  /    A nd           | Web:      www.OpenFOAM.org                      |
|    \\/     M anipulation  |                                                 |
\*---------------------------------------------------------------------------*/
FoamFile
{
    version     2.0;
    format      ascii;
    class       volVectorField;
    location    "2";
    object      U;
}
// * * * * * * * * * * * * * * * * * * * * * * * * * * * * * * * * * * * * * //

dimensions      [0 1 -1 0 0 0 0];

internalField   nonuniform List<vector> 
400
(
(-6.09971e-05 6.04682e-05 0)
(-0.000184632 6.15967e-05 0)
(-0.000307674 5.9684e-05 0)
(-0.000425555 5.67685e-05 0)
(-0.000536516 5.28345e-05 0)
(-0.000638448 4.7856e-05 0)
(-0.000729218 4.18049e-05 0)
(-0.000806643 3.4655e-05 0)
(-0.000868491 2.63895e-05 0)
(-0.000912515 1.70109e-05 0)
(-0.000936529 6.55544e-06 0)
(-0.00093832 -4.92354e-06 0)
(-0.000915925 -1.7302e-05 0)
(-0.000867946 -3.02222e-05 0)
(-0.000793651 -4.32611e-05 0)
(-0.000693279 -5.5875e-05 0)
(-0.000568302 -6.73862e-05 0)
(-0.000421774 -7.70119e-05 0)
(-0.000257866 -8.39285e-05 0)
(-8.60567e-05 -8.49655e-05 0)
(-6.41186e-05 0.000185476 0)
(-0.000194063 0.000188903 0)
(-0.000323382 0.000183042 0)
(-0.000447308 0.000174112 0)
(-0.000564022 0.000162066 0)
(-0.000671331 0.000146831 0)
(-0.000767031 0.000128321 0)
(-0.00084886 0.000106456 0)
(-0.000914504 8.11755e-05 0)
(-0.000961621 5.2474e-05 0)
(-0.000987939 2.04388e-05 0)
(-0.000991142 -1.47046e-05 0)
(-0.000968951 -5.25374e-05 0)
(-0.000919687 -9.21667e-05 0)
(-0.000842461 -0.000132338 0)
(-0.000737305 -0.000171359 0)
(-0.000605529 -0.000207101 0)
(-0.000450179 -0.0002371 0)
(-0.000275604 -0.000258731 0)
(-9.20403e-05 -0.000262171 0)
(-6.6073e-05 0.000315985 0)
(-0.000200054 0.000321849 0)
(-0.000333547 0.000311968 0)
(-0.000461686 0.00029691 0)
(-0.000582692 0.000276604 0)
(-0.000694386 0.000250919 0)
(-0.000794567 0.000219709 0)
(-0.000880958 0.000182823 0)
(-0.000951201 0.000140136 0)
(-0.00100286 9.15953e-05 0)
(-0.00103349 3.7291e-05 0)
(-0.00104053 -2.24282e-05 0)
(-0.00102134 -8.69452e-05 0)
(-0.000973707 -0.000154927 0)
(-0.000896135 -0.000224329 0)
(-0.000788041 -0.000292248 0)
(-0.000650202 -0.000354949 0)
(-0.000485412 -0.000408003 0)
(-0.00029811 -0.000446563 0)
(-9.97088e-05 -0.000453343 0)
(-6.89536e-05 0.000450853 0)
(-0.000208887 0.000459401 0)
(-0.000348552 0.000445584 0)
(-0.000482937 0.000424528 0)
(-0.000610331 0.000396121 0)
(-0.000728582 0.000360171 0)
(-0.000835505 0.000316452 0)
(-0.000928816 0.000264714 0)
(-0.0010061 0.000204724 0)
(-0.00106481 0.000136314 0)
(-0.00110227 5.94834e-05 0)
(-0.00111565 -2.54631e-05 0)
(-0.00110167 -0.000117946 0)
(-0.00105725 -0.00021624 0)
(-0.000979913 -0.000317632 0)
(-0.000868018 -0.000418032 0)
(-0.000721353 -0.000511902 0)
(-0.000542101 -0.000592398 0)
(-0.000334656 -0.000651688 0)
(-0.000112236 -0.000663634 0)
(-7.2769e-05 0.000592474 0)
(-0.000220601 0.000604069 0)
(-0.000368468 0.000586425 0)
(-0.000511158 0.000559534 0)
(-0.00064706 0.00052323 0)
(-0.000774067 0.000477247 0)
(-0.000890036 0.000421261 0)
(-0.000992696 0.000354895 0)
(-0.00107961 0.000277739 0)
(-0.00114811 0.000189413 0)
(-0.00119527 8.96795e-05 0)
(-0.00121796 -2.13359e-05 0)
(-0.00121212 -0.000143437 0)
(-0.0011734 -0.000274732 0)
(-0.00109794 -0.000412149 0)
(-0.000982328 -0.000550535 0)
(-0.000824601 -0.000682312 0)
(-0.00062563 -0.000797541 0)
(-0.000389304 -0.000884121 0)
(-0.000131167 -0.00090476 0)
(-7.74794e-05 0.000742647 0)
(-0.000235089 0.000757768 0)
(-0.000393135 0.000736449 0)
(-0.000546139 0.000703949 0)
(-0.000692627 0.000660029 0)
(-0.00083056 0.000604347 0)
(-0.000957867 0.000536473 0)
(-0.00107235 0.000455871 0)
(-0.00117159 0.000361902 0)
(-0.00125288 0.000253852 0)
(-0.00131303 0.000131033 0)
(-0.00134877 -7.02542e-06 0)
(-0.00135508 -0.000160168 0)
(-0.00132597 -0.000327551 0)
(-0.00125574 -0.000506092 0)
(-0.00113821 -0.000689927 0)
(-0.000968412 -0.000869402 0)
(-0.000744543 -0.00103063 0)
(-0.000468923 -0.0011552 0)
(-0.000159265 -0.00119132 0)
(-8.30256e-05 0.000903107 0)
(-0.000252198 0.000922378 0)
(-0.00042233 0.000897596 0)
(-0.000587588 0.000859789 0)
(-0.000746675 0.000808622 0)
(-0.000897639 0.000743688 0)
(-0.00103853 0.000664463 0)
(-0.00116728 0.000570256 0)
(-0.00128165 0.000460156 0)
(-0.00137899 0.000333014 0)
(-0.00145616 0.000187491 0)
(-0.00150917 2.2208e-05 0)
(-0.00153267 -0.000163315 0)
(-0.00151935 -0.000369954 0)
(-0.00146035 -0.000595498 0)
(-0.00134568 -0.000834298 0)
(-0.00116538 -0.00107516 0)
(-0.000912346 -0.00129957 0)
(-0.000585356 -0.00147954 0)
(-0.000201692 -0.00154483 0)
(-8.93192e-05 0.00107544 0)
(-0.000271709 0.00109967 0)
(-0.000455752 0.00107172 0)
(-0.000635127 0.001029 0)
(-0.000808747 0.00097104 0)
(-0.000974741 0.000897404 0)
(-0.00113132 0.00080753 0)
(-0.00127668 0.000700621 0)
(-0.00140886 0.00057551 0)
(-0.00152557 0.000430559 0)
(-0.00162385 0.000263631 0)
(-0.00169959 7.2213e-05 0)
(-0.00174727 -0.000146221 0)
(-0.0017582 -0.000394568 0)
(-0.00172013 -0.00067301 0)
(-0.00161793 -0.000977965 0)
(-0.00143381 -0.00129844 0)
(-0.00115029 -0.00161197 0)
(-0.000759616 -0.00187566 0)
(-0.000268625 -0.00199888 0)
(-9.62145e-05 0.00126102 0)
(-0.000293291 0.0012913 0)
(-0.000492998 0.00126062 0)
(-0.000688291 0.00121347 0)
(-0.000878298 0.00114923 0)
(-0.00106118 0.00106749 0)
(-0.00123535 0.000967789 0)
(-0.00139934 0.000849343 0)
(-0.00155175 0.000710836 0)
(-0.00169091 0.000550163 0)
(-0.00181454 0.000364255 0)
(-0.00191906 0.000149019 0)
(-0.0019995 -0.000100517 0)
(-0.0020462 -0.000390694 0)
(-0.00204382 -0.000726247 0)
(-0.00197119 -0.00110887 0)
(-0.00179954 -0.0015316 0)
(-0.00149171 -0.00197216 0)
(-0.00103032 -0.00236568 0)
(-0.000381255 -0.0026095 0)
(-0.000103461 0.00146063 0)
(-0.000316424 0.00149876 0)
(-0.000533527 0.00146602 0)
(-0.000746545 0.00141509 0)
(-0.000954762 0.00134506 0)
(-0.00115623 0.00125576 0)
(-0.00134953 0.00114703 0)
(-0.00153369 0.00101838 0)
(-0.00170811 0.000868569 0)
(-0.00187221 0.000695223 0)
(-0.00202506 0.000494402 0)
(-0.00216443 0.000260261 0)
(-0.00228708 -1.53985e-05 0)
(-0.00238404 -0.000342663 0)
(-0.00243842 -0.000735421 0)
(-0.00242341 -0.00120456 0)
(-0.00229717 -0.00175466 0)
(-0.00198808 -0.00237387 0)
(-0.00147094 -0.00297068 0)
(-0.000586052 -0.00347569 0)
(-0.000110306 0.00167573 0)
(-0.000339915 0.00172366 0)
(-0.000576534 0.00168984 0)
(-0.000809288 0.00163579 0)
(-0.00103768 0.00156037 0)
(-0.00125928 0.00146376 0)
(-0.00147281 0.00134655 0)
(-0.00167789 0.00120893 0)
(-0.00187499 0.0010502 0)
(-0.00206517 0.000868082 0)
(-0.00224959 0.000658059 0)
(-0.00242896 0.000412443 0)
(-0.00260255 0.000118734 0)
(-0.00276641 -0.000237502 0)
(-0.00290592 -0.000675585 0)
(-0.00299065 -0.00122823 0)
(-0.00296856 -0.00192539 0)
(-0.00271527 -0.00278494 0)
(-0.00222314 -0.00369139 0)
(-0.000991816 -0.00478226 0)
(-0.000116635 0.00189659 0)
(-0.000363082 0.00196853 0)
(-0.000621149 0.0019337 0)
(-0.000876079 0.00187886 0)
(-0.00112686 0.00179753 0)
(-0.00137014 0.00169301 0)
(-0.00160447 0.00156699 0)
(-0.00183016 0.0014211 0)
(-0.00204908 0.00125576 0)
(-0.0022645 0.00106956 0)
(-0.00248088 0.00085859 0)
(-0.00270401 0.000615705 0)
(-0.00293739 0.000329216 0)
(-0.00317887 -2.30477e-05 0)
(-0.00342978 -0.000481749 0)
(-0.00367395 -0.00110327 0)
(-0.00385273 -0.00195188 0)
(-0.00377296 -0.00312214 0)
(-0.00355099 -0.00444876 0)
(-0.00187431 -0.00687244 0)
(-0.000108381 0.00216892 0)
(-0.00037235 0.00222333 0)
(-0.000665868 0.00219955 0)
(-0.000945507 0.00213839 0)
(-0.00122365 0.00205491 0)
(-0.00148993 0.00194242 0)
(-0.00174485 0.00180727 0)
(-0.00198927 0.00165304 0)
(-0.00222669 0.00148252 0)
(-0.00246248 0.00129579 0)
(-0.00270347 0.00108915 0)
(-0.00295817 0.000852887 0)
(-0.00324095 0.000570853 0)
(-0.00357679 0.000216186 0)
(-0.00398558 -0.000255346 0)
(-0.00446092 -0.000891501 0)
(-0.00498316 -0.0018052 0)
(-0.00526049 -0.00324307 0)
(-0.00585635 -0.0049924 0)
(-0.00383401 -0.0103561 0)
(-0.00014838 0.00228791 0)
(-0.000417676 0.00262119 0)
(-0.000704644 0.00250054 0)
(-0.00102114 0.00249778 0)
(-0.00132277 0.00236921 0)
(-0.00161795 0.00223168 0)
(-0.00189402 0.00207324 0)
(-0.00215511 0.00190439 0)
(-0.00240659 0.00172767 0)
(-0.00265829 0.00154524 0)
(-0.00292465 0.00136028 0)
(-0.00322398 0.00117472 0)
(-0.00357669 0.000982788 0)
(-0.004009 0.000764496 0)
(-0.00454404 0.000470543 0)
(-0.00523387 2.00053e-05 0)
(-0.00620047 -0.000767101 0)
(-0.00703627 -0.00258172 0)
(-0.00933577 -0.00440862 0)
(-0.00677974 -0.0166277 0)
(0.000133442 0.00284833 0)
(-0.000242804 0.00253606 0)
(-0.000795592 0.00272907 0)
(-0.00107556 0.00254094 0)
(-0.0014911 0.00252227 0)
(-0.00178582 0.00241205 0)
(-0.00207224 0.00228708 0)
(-0.00233489 0.00213317 0)
(-0.00258578 0.00196207 0)
(-0.00282941 0.0017813 0)
(-0.00307263 0.00159934 0)
(-0.00333304 0.00141987 0)
(-0.00364666 0.00124331 0)
(-0.00408124 0.00106071 0)
(-0.00471759 0.000835158 0)
(-0.00567967 0.000511953 0)
(-0.00749667 6.12198e-05 0)
(-0.00840416 -0.00170353 0)
(-0.0129881 -0.00368949 0)
(-0.00603494 -0.0280352 0)
(-0.00045373 0.00215718 0)
(-0.000604712 0.00407981 0)
(-0.000637486 0.00341587 0)
(-0.00121763 0.00378265 0)
(-0.0014422 0.00333982 0)
(-0.00185286 0.00312012 0)
(-0.00217316 0.00282155 0)
(-0.00248115 0.00255475 0)
(-0.00275978 0.00231608 0)
(-0.00302329 0.00211038 0)
(-0.00329009 0.00195322 0)
(-0.00358656 0.00185981 0)
(-0.00394611 0.0018513 0)
(-0.00443464 0.00201033 0)
(-0.00512082 0.00227806 0)
(-0.00600197 0.00265175 0)
(-0.0080472 0.00342003 0)
(-0.007338 0.000785566 0)
(-0.0141064 -0.00356578 0)
(0.00292207 -0.039166 0)
(0.000702331 0.00437431 0)
(0.000302008 0.00208805 0)
(-0.00162523 0.00304519 0)
(-0.00138397 0.00246718 0)
(-0.00229943 0.00268718 0)
(-0.00236134 0.00255746 0)
(-0.00266956 0.00250018 0)
(-0.00285492 0.00237965 0)
(-0.00303721 0.00224645 0)
(-0.00319415 0.002091 0)
(-0.00332305 0.00196045 0)
(-0.00343437 0.00185612 0)
(-0.00349533 0.00183304 0)
(-0.00364486 0.00192678 0)
(-0.00402843 0.00218234 0)
(-0.00414435 0.00229014 0)
(-0.00758661 0.0029011 0)
(-0.00673764 0.00042311 0)
(-0.0152116 -0.00875749 0)
(0.0102689 -0.0428226 0)
(0.00293342 0.000269567 0)
(0.00139753 0.00729705 0)
(0.00284204 0.00538331 0)
(0.000505013 0.00584439 0)
(0.00011217 0.00481831 0)
(-0.00110376 0.00450244 0)
(-0.00171618 0.00393549 0)
(-0.00232228 0.00348972 0)
(-0.00276531 0.0031304 0)
(-0.00314217 0.00278583 0)
(-0.00340065 0.00252532 0)
(-0.00364799 0.00245151 0)
(-0.00381751 0.00221387 0)
(-0.00402077 0.00302209 0)
(-0.00467983 0.00381438 0)
(-0.00455289 0.00542594 0)
(-0.00715667 0.00936098 0)
(-0.00397799 0.00454004 0)
(-0.00914435 -0.0157752 0)
(0.010086 -0.04535 0)
(-0.0141723 0.000563485 0)
(-0.00571579 0.00174061 0)
(-0.0145746 0.0029514 0)
(-0.00899487 0.00371764 0)
(-0.0116125 0.00330336 0)
(-0.00930145 0.0031614 0)
(-0.00926115 0.00288281 0)
(-0.0082851 0.00258328 0)
(-0.00780324 0.00244947 0)
(-0.00699057 0.00207938 0)
(-0.00643703 0.0020293 0)
(-0.00598975 0.00173839 0)
(-0.0046296 0.00189196 0)
(-0.00463128 0.00194746 0)
(-0.00286743 0.00267702 0)
(0.000930007 0.00295289 0)
(0.00115935 0.00156107 0)
(0.0112749 -0.000428297 0)
(0.010008 -0.0256519 0)
(0.0137646 -0.0463066 0)
(0.00696703 0.0170152 0)
(0.0134578 0.0109203 0)
(0.0172893 0.00815561 0)
(0.023492 0.00588279 0)
(0.0273741 0.00503424 0)
(0.0314472 0.00404527 0)
(0.0335127 0.00361444 0)
(0.0380784 0.00276037 0)
(0.0376859 0.00264792 0)
(0.0439157 0.00208911 0)
(0.0406066 0.0015246 0)
(0.0481343 0.00218041 0)
(0.0437124 0.000106013 0)
(0.0504371 0.00238795 0)
(0.0471756 -0.000471548 0)
(0.0521058 0.000820335 0)
(0.0494879 0.00127377 0)
(0.0523006 -0.00362205 0)
(0.0438612 -0.00417078 0)
(0.0291062 -0.0100767 0)
)
;

boundaryField
{
    movingWall
    {
        type            fixedValue;
        value           uniform (1 0 0);
    }
    fixedWalls
    {
        type            noSlip;
    }
    frontAndBack
    {
        type            empty;
    }
}


// ************************************************************************* //
