/*--------------------------------*- C++ -*----------------------------------*\
| =========                 |                                                 |
| \\      /  F ield         | OpenFOAM: The Open Source CFD Toolbox           |
|  \\    /   O peration     | Version:  5.x                                   |
|   \\  /    A nd           | Web:      www.OpenFOAM.org                      |
|    \\/     M anipulation  |                                                 |
\*---------------------------------------------------------------------------*/
FoamFile
{
    version     2.0;
    format      ascii;
    class       volScalarField;
    location    "4.8";
    object      p;
}
// * * * * * * * * * * * * * * * * * * * * * * * * * * * * * * * * * * * * * //

dimensions      [0 2 -2 0 0 0 0];

internalField   nonuniform List<scalar> 
400
(
-2.60633e-10
2.51343e-07
8.58976e-07
1.84453e-06
3.31231e-06
5.40368e-06
8.33736e-06
1.24456e-05
1.8243e-05
2.65251e-05
3.85268e-05
5.60819e-05
8.14628e-05
0.000113759
0.000129342
4.35683e-05
-0.000162339
-0.000227348
0.000246342
0.00175795
-5.20266e-07
-3.10236e-07
2.05046e-07
1.03605e-06
2.26099e-06
3.97673e-06
6.32133e-06
9.47034e-06
1.36255e-05
1.89574e-05
2.53843e-05
3.19399e-05
3.50986e-05
2.49421e-05
-2.78918e-05
-0.000201417
-0.000519712
-0.000742934
-0.000389755
0.000631394
-1.65399e-06
-1.52475e-06
-1.18648e-06
-6.47486e-07
1.25069e-07
1.15331e-06
2.44592e-06
3.96008e-06
5.52891e-06
6.69193e-06
6.32032e-06
1.85212e-06
-1.22625e-05
-4.74706e-05
-0.000127264
-0.000301771
-0.000601789
-0.000886156
-0.00074841
-0.000185323
-3.2501e-06
-3.22959e-06
-3.12632e-06
-2.96781e-06
-2.76956e-06
-2.58471e-06
-2.527e-06
-2.8321e-06
-3.96115e-06
-6.79767e-06
-1.30015e-05
-2.56853e-05
-5.05803e-05
-9.75273e-05
-0.000186364
-0.00033372
-0.000583788
-0.000876557
-0.000913938
-0.000541164
-5.15939e-06
-5.26351e-06
-5.42201e-06
-5.67763e-06
-6.08279e-06
-6.7479e-06
-7.87267e-06
-9.81012e-06
-1.31657e-05
-1.89697e-05
-2.89149e-05
-4.57737e-05
-7.47663e-05
-0.000120004
-0.000204063
-0.000309658
-0.000476147
-0.00060496
-0.000619388
-0.000469366
-7.20059e-06
-7.43666e-06
-7.85931e-06
-8.51875e-06
-9.48337e-06
-1.0888e-05
-1.29667e-05
-1.61036e-05
-2.09048e-05
-2.83344e-05
-3.99158e-05
-5.70119e-05
-8.61237e-05
-0.000118709
-0.000192091
-0.000261942
-0.000369368
-0.000447861
-0.000494931
-0.000420933
-9.18864e-06
-9.56894e-06
-1.02489e-05
-1.12839e-05
-1.27215e-05
-1.46972e-05
-1.74281e-05
-2.1275e-05
-2.67548e-05
-3.45507e-05
-4.65601e-05
-5.98245e-05
-8.94316e-05
-0.000107214
-0.00017036
-0.000209799
-0.00028148
-0.000326465
-0.00039974
-0.000343885
-1.09369e-05
-1.14825e-05
-1.24121e-05
-1.37828e-05
-1.55973e-05
-1.79571e-05
-2.10445e-05
-2.51399e-05
-3.07425e-05
-3.74181e-05
-5.01589e-05
-5.75833e-05
-8.64793e-05
-9.46595e-05
-0.000138842
-0.000153918
-0.000201166
-0.000189014
-0.000206399
-0.000176423
-1.22596e-05
-1.30715e-05
-1.42671e-05
-1.60708e-05
-1.81628e-05
-2.08028e-05
-2.39691e-05
-2.78962e-05
-3.35156e-05
-3.77327e-05
-5.12915e-05
-5.29503e-05
-7.83903e-05
-7.9794e-05
-0.000113066
-0.000108707
-0.0001424
-0.000107818
-0.000107951
-8.94922e-05
-1.29647e-05
-1.41319e-05
-1.56512e-05
-1.77474e-05
-2.00683e-05
-2.27277e-05
-2.59651e-05
-2.90543e-05
-3.52411e-05
-3.63953e-05
-5.00227e-05
-4.74639e-05
-6.85124e-05
-6.1942e-05
-9.19986e-05
-7.0393e-05
-0.000107446
-6.18309e-05
-0.00010709
-6.45058e-05
-1.26496e-05
-1.4613e-05
-1.68357e-05
-1.99404e-05
-2.24496e-05
-2.56104e-05
-2.86159e-05
-3.06409e-05
-3.67811e-05
-3.53326e-05
-4.76726e-05
-4.2236e-05
-6.08978e-05
-4.79618e-05
-7.59777e-05
-4.60247e-05
-8.32151e-05
-1.96357e-05
-8.12962e-05
-1.20126e-05
-1.1425e-05
-1.54429e-05
-1.75283e-05
-2.06641e-05
-2.32749e-05
-2.525e-05
-2.9119e-05
-2.911e-05
-3.58234e-05
-3.24275e-05
-4.33375e-05
-3.44377e-05
-5.29099e-05
-3.06875e-05
-6.23691e-05
-1.35668e-05
-6.18518e-05
2.66198e-05
-2.48148e-05
5.03153e-05
-6.15299e-06
-1.17867e-05
-1.78972e-05
-2.35804e-05
-2.72564e-05
-3.08794e-05
-3.31575e-05
-3.38102e-05
-3.78524e-05
-3.39105e-05
-4.27674e-05
-3.17648e-05
-4.88309e-05
-2.58409e-05
-5.42659e-05
-1.02263e-05
-4.97736e-05
3.37835e-05
-2.21623e-05
6.49696e-05
-4.02267e-06
-2.00307e-05
-2.09856e-05
-2.60447e-05
-2.77203e-05
-2.87905e-05
-3.09128e-05
-3.03947e-05
-3.37725e-05
-2.92173e-05
-3.66246e-05
-2.36171e-05
-3.9752e-05
-1.02247e-05
-4.17201e-05
1.54522e-05
-4.09144e-05
4.74922e-05
-3.9121e-05
4.96027e-05
1.32331e-05
-7.93958e-06
-1.92652e-05
-3.22774e-05
-3.618e-05
-4.07913e-05
-3.99274e-05
-3.98151e-05
-3.94569e-05
-3.53891e-05
-3.92817e-05
-2.77019e-05
-3.99022e-05
-1.78922e-05
-4.24473e-05
-4.61663e-06
-4.80597e-05
2.0842e-05
-8.10065e-05
3.2268e-05
-2.00021e-05
-5.99284e-05
-2.80996e-05
-4.58198e-05
-3.9653e-05
-3.38076e-05
-3.3125e-05
-3.21733e-05
-3.22093e-05
-2.83639e-05
-2.99496e-05
-1.93571e-05
-2.81177e-05
-5.51206e-06
-2.16807e-05
1.87923e-05
1.86451e-07
2.15774e-05
-9.60766e-06
4.36572e-05
2.02429e-05
-9.42817e-05
-6.09311e-05
-6.81814e-05
-5.23544e-05
-5.38296e-05
-4.46556e-05
-4.67975e-05
-4.25683e-05
-3.89769e-05
-3.57972e-05
-3.18476e-05
-2.85208e-05
-2.68433e-05
-2.14648e-05
-1.27407e-05
-7.7937e-05
3.06496e-06
-8.69804e-05
8.01729e-05
-3.65859e-05
-0.000187639
-6.70139e-05
-4.78533e-05
-4.92236e-05
-4.2037e-05
-4.14619e-05
-3.96819e-05
-3.57091e-05
-3.17118e-05
-2.48778e-05
-1.75431e-05
-1.80803e-05
-4.61718e-06
-2.98699e-05
-3.11947e-05
3.62259e-05
5.04716e-05
0.000119777
0.00024954
6.13829e-05
-6.42312e-05
-4.25854e-05
-4.13074e-05
-3.84363e-05
-2.95341e-05
-3.56444e-05
-4.63679e-05
-4.96843e-05
-4.38035e-05
-3.44304e-05
-3.95569e-05
-3.88808e-05
-1.95859e-05
-2.59591e-05
-6.48964e-05
-1.79049e-06
8.47711e-06
2.42322e-06
0.000544383
-8.23479e-05
-5.88737e-05
8.51397e-06
-6.90742e-05
-2.3465e-05
-1.71541e-05
-1.37777e-05
-1.9072e-05
-2.05893e-05
-1.8067e-05
-1.2967e-05
-8.9243e-06
-1.29802e-05
3.68856e-06
2.68305e-05
5.24079e-05
1.34671e-05
0.000246224
0.000657784
0.00183597
)
;

boundaryField
{
    movingWall
    {
        type            zeroGradient;
    }
    fixedWalls
    {
        type            zeroGradient;
    }
    frontAndBack
    {
        type            empty;
    }
}


// ************************************************************************* //
