/*--------------------------------*- C++ -*----------------------------------*\
| =========                 |                                                 |
| \\      /  F ield         | OpenFOAM: The Open Source CFD Toolbox           |
|  \\    /   O peration     | Version:  5.x                                   |
|   \\  /    A nd           | Web:      www.OpenFOAM.org                      |
|    \\/     M anipulation  |                                                 |
\*---------------------------------------------------------------------------*/
FoamFile
{
    version     2.0;
    format      ascii;
    class       volVectorField;
    location    "4.8";
    object      U;
}
// * * * * * * * * * * * * * * * * * * * * * * * * * * * * * * * * * * * * * //

dimensions      [0 1 -1 0 0 0 0];

internalField   nonuniform List<vector> 
400
(
(-0.000174066 0.000176319 0)
(-0.000546648 0.000191888 0)
(-0.000948615 0.000203104 0)
(-0.00137464 0.000221153 0)
(-0.00184501 0.000247233 0)
(-0.0023762 0.000283614 0)
(-0.00299229 0.000333972 0)
(-0.00372651 0.000404456 0)
(-0.00462731 0.000505889 0)
(-0.00576845 0.000657122 0)
(-0.00726875 0.0008935 0)
(-0.0093278 0.00128621 0)
(-0.0122833 0.00198677 0)
(-0.0167092 0.00329172 0)
(-0.0237023 0.00541905 0)
(-0.0354605 0.00700547 0)
(-0.0510986 0.0039796 0)
(-0.0588668 -0.00567467 0)
(-0.0512468 -0.019724 0)
(-0.00350838 -0.0293294 0)
(-0.000182803 0.000544138 0)
(-0.000573566 0.000591304 0)
(-0.000993643 0.000624455 0)
(-0.00143627 0.00067774 0)
(-0.00192082 0.000754573 0)
(-0.00246187 0.00086149 0)
(-0.00308027 0.00100898 0)
(-0.00380291 0.00121398 0)
(-0.00466682 0.00150442 0)
(-0.00572327 0.00192722 0)
(-0.00704284 0.00256467 0)
(-0.00871766 0.00356694 0)
(-0.0108419 0.00520983 0)
(-0.0134622 0.00793664 0)
(-0.0166394 0.012031 0)
(-0.0209994 0.0160604 0)
(-0.0265598 0.0149077 0)
(-0.030581 0.00232856 0)
(-0.0316602 -0.0242813 0)
(-0.000513653 -0.0416585 0)
(-0.000173013 0.000913455 0)
(-0.000543681 0.000991838 0)
(-0.000941617 0.00104494 0)
(-0.00135836 0.00112973 0)
(-0.00181043 0.00125115 0)
(-0.00230841 0.0014186 0)
(-0.00286687 0.00164699 0)
(-0.00350282 0.0019594 0)
(-0.00423669 0.00239167 0)
(-0.00509119 0.00300014 0)
(-0.00608749 0.00387431 0)
(-0.00723552 0.00515715 0)
(-0.00850384 0.00706862 0)
(-0.00974858 0.00988499 0)
(-0.0106631 0.0136598 0)
(-0.011435 0.0170626 0)
(-0.0125357 0.0157139 0)
(-0.0130542 0.000741956 0)
(-0.0118906 -0.0343326 0)
(-0.00878892 -0.0597297 0)
(-0.000157658 0.00125427 0)
(-0.00049684 0.0013623 0)
(-0.000860688 0.00143225 0)
(-0.0012386 0.00154293 0)
(-0.00164346 0.00169954 0)
(-0.00208105 0.00191255 0)
(-0.00255876 0.00219816 0)
(-0.00308302 0.00258073 0)
(-0.00365834 0.00309635 0)
(-0.00428365 0.00379796 0)
(-0.0049449 0.00476185 0)
(-0.00560229 0.00609701 0)
(-0.00616491 0.00795077 0)
(-0.00643083 0.0104511 0)
(-0.00610434 0.0135996 0)
(-0.00479499 0.015899 0)
(-0.00331162 0.0148702 0)
(-0.00091143 0.00190511 0)
(-0.00125133 -0.0301551 0)
(0.00327083 -0.0652945 0)
(-0.000138322 0.00156074 0)
(-0.000438267 0.00169671 0)
(-0.000760469 0.00177998 0)
(-0.00109206 0.00190994 0)
(-0.00144215 0.00209107 0)
(-0.00181169 0.00233305 0)
(-0.00220135 0.00265093 0)
(-0.00260847 0.0030665 0)
(-0.00302525 0.0036102 0)
(-0.00343481 0.00432354 0)
(-0.00380315 0.00526014 0)
(-0.00406674 0.0064828 0)
(-0.00414232 0.00809506 0)
(-0.00375081 0.0100006 0)
(-0.00301408 0.0124892 0)
(-0.000683778 0.0135743 0)
(0.00109478 0.0122742 0)
(0.00405466 9.08927e-05 0)
(0.00280742 -0.0305451 0)
(0.00236763 -0.0557294 0)
(-0.00011573 0.0018253 0)
(-0.000370634 0.00198835 0)
(-0.000646405 0.00208207 0)
(-0.000927894 0.00222574 0)
(-0.00122085 0.00242145 0)
(-0.00152193 0.0026772 0)
(-0.00182641 0.00300497 0)
(-0.00212539 0.00342235 0)
(-0.00240371 0.00395204 0)
(-0.00263722 0.00462307 0)
(-0.00279099 0.00547435 0)
(-0.00276941 0.00649785 0)
(-0.00263257 0.0078894 0)
(-0.00176003 0.00913074 0)
(-0.00110209 0.0111678 0)
(0.00152149 0.0113961 0)
(0.00260954 0.00992337 0)
(0.00547157 -0.000540675 0)
(0.00298147 -0.0291719 0)
(-0.00275078 -0.0616732 0)
(-8.97341e-05 0.00204221 0)
(-0.000295023 0.0022319 0)
(-0.000522021 0.00233439 0)
(-0.000753037 0.00248661 0)
(-0.000991193 0.00268909 0)
(-0.00122889 0.00294556 0)
(-0.00145727 0.00326555 0)
(-0.00166306 0.00366061 0)
(-0.00182732 0.00414625 0)
(-0.00191704 0.00473105 0)
(-0.00193933 0.00547555 0)
(-0.00165647 0.00619531 0)
(-0.00152579 0.00741677 0)
(-0.000270865 0.00798207 0)
(0.000162055 0.00957308 0)
(0.00283718 0.00916739 0)
(0.00339905 0.00795296 0)
(0.00691064 -0.000767583 0)
(0.00324844 -0.0249506 0)
(0.00417382 -0.0595868 0)
(-6.04936e-05 0.00220488 0)
(-0.000212319 0.00242909 0)
(-0.000390801 0.00254053 0)
(-0.000573497 0.00270735 0)
(-0.000762143 0.00290954 0)
(-0.0009459 0.00316055 0)
(-0.00111188 0.00345775 0)
(-0.00124541 0.00381553 0)
(-0.00133437 0.004246 0)
(-0.00130607 0.00471233 0)
(-0.00132963 0.00540564 0)
(-0.000801373 0.00582631 0)
(-0.000843301 0.00697992 0)
(0.000596816 0.00714249 0)
(0.000662726 0.00849365 0)
(0.00344539 0.00763576 0)
(0.00301488 0.00669385 0)
(0.0071943 -0.0012131 0)
(0.00236935 -0.0226158 0)
(0.00490536 -0.053144 0)
(-1.92928e-05 0.00230897 0)
(-0.000113191 0.00256513 0)
(-0.000243473 0.00268722 0)
(-0.00038457 0.00284816 0)
(-0.000539208 0.00305322 0)
(-0.00068201 0.00328245 0)
(-0.000804243 0.00356043 0)
(-0.000876955 0.00386623 0)
(-0.000935456 0.00425303 0)
(-0.000758973 0.00456122 0)
(-0.000845723 0.00520549 0)
(-7.79565e-05 0.00532529 0)
(-0.000262411 0.0062821 0)
(0.00133864 0.00602432 0)
(0.000985988 0.00712421 0)
(0.00382181 0.00570498 0)
(0.00241147 0.00537301 0)
(0.0063744 -0.00169082 0)
(0.000863678 -0.0206613 0)
(0.000101909 -0.0525249 0)
(2.36724e-05 0.00232677 0)
(-8.68377e-06 0.00267843 0)
(-0.000106805 0.00281967 0)
(-0.000207654 0.00309409 0)
(-0.000324957 0.00326969 0)
(-0.000436673 0.00352667 0)
(-0.000525065 0.00373476 0)
(-0.000549225 0.00397853 0)
(-0.000637606 0.00430452 0)
(-0.0003397 0.00447881 0)
(-0.000561804 0.00506901 0)
(0.000316965 0.00508521 0)
(-0.000120723 0.00592738 0)
(0.00158484 0.00561822 0)
(0.000585026 0.0067366 0)
(0.00383558 0.00539544 0)
(0.00127483 0.00528156 0)
(0.00606816 -0.000972308 0)
(-8.51176e-05 -0.0173773 0)
(0.00120377 -0.0537114 0)
(0.00014238 0.00229908 0)
(0.000187691 0.002706 0)
(0.000167826 0.00284134 0)
(6.393e-05 0.00295637 0)
(-0.000114049 0.00316539 0)
(-0.000223444 0.00330031 0)
(-0.000361714 0.00356637 0)
(-0.000314667 0.00372141 0)
(-0.000449343 0.0040778 0)
(-2.46836e-06 0.00413668 0)
(-0.000278493 0.00462736 0)
(0.000755712 0.00451485 0)
(0.000177506 0.00512057 0)
(0.00216435 0.00445132 0)
(0.000773784 0.00547218 0)
(0.00425993 0.00335437 0)
(0.000991576 0.00426506 0)
(0.0064537 -0.00179209 0)
(-0.00120474 -0.0152351 0)
(0.00504274 -0.0520861 0)
(0.000231878 0.00192757 0)
(0.000304045 0.00258693 0)
(0.000151766 0.0029838 0)
(0.000116278 0.00357884 0)
(3.51082e-05 0.00373406 0)
(-2.59309e-05 0.0040783 0)
(-9.07118e-05 0.00409898 0)
(-2.19011e-05 0.0042489 0)
(-0.000208644 0.00435828 0)
(0.000233197 0.00441052 0)
(-0.000156033 0.00467747 0)
(0.000853878 0.00464161 0)
(-0.000102756 0.00514955 0)
(0.00205507 0.00476555 0)
(-0.000346299 0.00573745 0)
(0.00404936 0.00463754 0)
(-0.000973593 0.00483606 0)
(0.0064852 -0.000171952 0)
(-0.00253908 -0.0131061 0)
(0.0051322 -0.0494266 0)
(0.000603103 0.00190118 0)
(0.00103614 0.003149 0)
(0.00112679 0.00300828 0)
(0.000808106 0.00287914 0)
(0.000352459 0.00304123 0)
(0.000115794 0.00301277 0)
(-0.000215487 0.00327335 0)
(-7.9078e-05 0.00335886 0)
(-0.000315595 0.00355274 0)
(0.000281194 0.00365997 0)
(-0.000111953 0.00382657 0)
(0.00115896 0.00379803 0)
(0.000110241 0.00403821 0)
(0.00270417 0.00348385 0)
(0.000210616 0.00405033 0)
(0.0048629 0.0019911 0)
(-0.000577897 0.00317518 0)
(0.00660138 -0.00227527 0)
(-0.00491625 -0.0130644 0)
(0.00403845 -0.0498605 0)
(0.00132104 -2.43847e-05 0)
(0.000893998 0.00162694 0)
(5.84604e-05 0.00299404 0)
(0.000357225 0.00465042 0)
(0.000345298 0.00473202 0)
(0.000299611 0.0051741 0)
(0.000297922 0.00476411 0)
(0.000312407 0.00478883 0)
(0.000136732 0.00449475 0)
(0.000579688 0.00458293 0)
(5.33766e-05 0.00443188 0)
(0.00117895 0.00450656 0)
(-0.000273953 0.00459813 0)
(0.00220231 0.00453164 0)
(-0.00148687 0.0051094 0)
(0.00374169 0.00500986 0)
(-0.00385913 0.00500248 0)
(0.0068615 0.00309064 0)
(-0.00552673 -0.00911515 0)
(0.00594078 -0.050729 0)
(0.00289111 -0.000252874 0)
(0.00345313 0.00548855 0)
(0.00300192 0.00377376 0)
(0.00150571 0.0025196 0)
(-2.09944e-05 0.00266176 0)
(-0.000414789 0.00236417 0)
(-0.000887428 0.00275539 0)
(-0.000601335 0.00280547 0)
(-0.000690365 0.00288263 0)
(-5.20967e-06 0.00299717 0)
(-0.000382114 0.00298132 0)
(0.00102036 0.00319449 0)
(-0.00023905 0.00298782 0)
(0.00274592 0.0033524 0)
(-0.000631521 0.00257398 0)
(0.00592196 0.00270431 0)
(-0.00185617 0.000143367 0)
(0.00798695 -0.00213208 0)
(-0.00820589 -0.0131907 0)
(0.00798163 -0.0514872 0)
(0.0056928 -0.0074182 0)
(0.00434654 0.000964563 0)
(0.0029406 0.00451438 0)
(0.00400536 0.00807747 0)
(0.00350202 0.00702506 0)
(0.00227941 0.00694006 0)
(0.00179229 0.00554811 0)
(0.00159053 0.00530234 0)
(0.00111858 0.00462103 0)
(0.00162885 0.00478748 0)
(0.000885882 0.00415779 0)
(0.00222148 0.00474649 0)
(0.000376543 0.00391181 0)
(0.00326949 0.00512775 0)
(-0.00128212 0.00360796 0)
(0.00269801 0.00622069 0)
(-0.00469132 0.00560188 0)
(0.00805905 0.00896058 0)
(-0.00701317 -0.00570842 0)
(0.00892445 -0.0503237 0)
(0.000406433 -0.0092395 0)
(0.00123007 0.0108064 0)
(-0.00980914 0.00249224 0)
(-0.0049925 0.00205265 0)
(-0.00823351 0.00358577 0)
(-0.00563113 0.00287915 0)
(-0.00548135 0.00280903 0)
(-0.00475013 0.00257864 0)
(-0.00374077 0.00233841 0)
(-0.00353638 0.00228091 0)
(-0.00257252 0.0021144 0)
(-0.00220538 0.00245463 0)
(-0.00166535 0.00199278 0)
(-0.00119465 0.00329877 0)
(-0.00177313 0.00317797 0)
(0.00278382 0.00430928 0)
(-0.00570825 -0.00547063 0)
(0.0112621 -0.00146756 0)
(-0.00699795 -0.0171362 0)
(0.0086905 -0.0516067 0)
(-0.0117097 -0.0123592 0)
(0.0103331 0.0102191 0)
(0.00725526 0.00922242 0)
(0.00692177 0.00870831 0)
(0.00981954 0.00730152 0)
(0.010437 0.00581526 0)
(0.0109165 0.00470518 0)
(0.0119392 0.0047788 0)
(0.0107534 0.00384904 0)
(0.0119115 0.00431233 0)
(0.00973258 0.00362494 0)
(0.0115463 0.00460176 0)
(0.00767525 0.00353792 0)
(0.012032 0.00636288 0)
(0.00570899 -9.43901e-05 0)
(0.014355 0.0105901 0)
(0.00167883 -0.00019349 0)
(0.00812159 0.0096512 0)
(-0.00113493 0.00276271 0)
(0.0121823 -0.0472347 0)
(-0.0222648 -0.00479417 0)
(-0.0136997 -0.00322921 0)
(-0.0228103 0.0038552 0)
(-0.0128632 -0.0003871 0)
(-0.0216206 0.000865228 0)
(-0.0111065 0.000984634 0)
(-0.0210078 0.000745415 0)
(-0.0106608 0.00236404 0)
(-0.0188526 0.00120561 0)
(-0.0102452 0.00285434 0)
(-0.0153499 0.00175261 0)
(-0.00940607 0.00290539 0)
(-0.0115086 0.00179938 0)
(-0.0064079 0.00264012 0)
(-0.00604761 0.00105189 0)
(-0.00860324 0.00805611 0)
(0.00774633 -0.00247422 0)
(-0.0082745 5.75515e-05 0)
(0.017278 -0.0258973 0)
(0.0133111 -0.0473897 0)
(-0.000246838 0.0178288 0)
(0.0145405 0.012978 0)
(0.0122286 0.00650537 0)
(0.0205635 0.00721222 0)
(0.0235561 0.00601071 0)
(0.0244346 0.0045756 0)
(0.0296105 0.00488978 0)
(0.0301253 0.00434087 0)
(0.0355753 0.00355167 0)
(0.0348183 0.00228436 0)
(0.0401303 0.002628 0)
(0.0385844 0.00223323 0)
(0.0446893 0.00204136 0)
(0.0430816 0.00147008 0)
(0.0477115 0.00136026 0)
(0.0469401 0.000353102 0)
(0.0494569 -0.000108198 0)
(0.0503716 0.000139036 0)
(0.0417655 -0.004893 0)
(0.0276334 -0.00588199 0)
)
;

boundaryField
{
    movingWall
    {
        type            fixedValue;
        value           uniform (1 0 0);
    }
    fixedWalls
    {
        type            noSlip;
    }
    frontAndBack
    {
        type            empty;
    }
}


// ************************************************************************* //
