/*--------------------------------*- C++ -*----------------------------------*\
| =========                 |                                                 |
| \\      /  F ield         | OpenFOAM: The Open Source CFD Toolbox           |
|  \\    /   O peration     | Version:  5.x                                   |
|   \\  /    A nd           | Web:      www.OpenFOAM.org                      |
|    \\/     M anipulation  |                                                 |
\*---------------------------------------------------------------------------*/
FoamFile
{
    version     2.0;
    format      ascii;
    class       volScalarField;
    location    "4.3";
    object      p;
}
// * * * * * * * * * * * * * * * * * * * * * * * * * * * * * * * * * * * * * //

dimensions      [0 2 -2 0 0 0 0];

internalField   nonuniform List<scalar> 
400
(
8.08385e-09
8.78806e-08
3.2874e-07
7.31531e-07
1.35841e-06
2.28662e-06
3.63324e-06
5.56822e-06
8.3427e-06
1.23281e-05
1.80811e-05
2.64528e-05
3.87707e-05
5.71279e-05
8.49839e-05
0.00012955
0.000205647
0.000328401
0.000559594
0.00134448
-3.01743e-07
-2.52339e-07
-6.8997e-08
2.41713e-07
7.29921e-07
1.45466e-06
2.50409e-06
4.00166e-06
6.12062e-06
9.10735e-06
1.33149e-05
1.92538e-05
2.7675e-05
3.96501e-05
5.65457e-05
8.12687e-05
0.000123496
0.000181571
0.000190104
0.000906154
-1.01591e-06
-1.01816e-06
-9.44485e-07
-8.10479e-07
-5.87639e-07
-2.50646e-07
2.34606e-07
9.063e-07
1.80369e-06
2.95778e-06
4.36845e-06
5.95342e-06
7.44592e-06
8.08719e-06
5.28396e-06
-7.97324e-06
-3.24981e-05
-3.27005e-05
-0.000428001
0.000165949
-2.03501e-06
-2.10713e-06
-2.18334e-06
-2.28937e-06
-2.42301e-06
-2.59988e-06
-2.8512e-06
-3.24055e-06
-3.88701e-06
-5.00816e-06
-6.99999e-06
-1.05871e-05
-1.7087e-05
-2.89124e-05
-5.06865e-05
-9.43305e-05
-0.000181778
-0.00019205
-0.000473051
-0.00030365
-3.25978e-06
-3.41411e-06
-3.66461e-06
-4.04536e-06
-4.57943e-06
-5.32175e-06
-6.36635e-06
-7.87305e-06
-1.01065e-05
-1.35043e-05
-1.87939e-05
-2.71966e-05
-4.07627e-05
-6.29727e-05
-9.90407e-05
-0.000154193
-0.000276493
-0.000358682
-0.000424325
-0.000471503
-4.56578e-06
-4.80971e-06
-5.24414e-06
-5.90677e-06
-6.83918e-06
-8.12532e-06
-9.9073e-06
-1.24162e-05
-1.60189e-05
-2.1294e-05
-2.91504e-05
-4.10541e-05
-5.9348e-05
-8.74168e-05
-0.000134786
-0.000191596
-0.000333956
-0.000480406
-0.000587762
-0.000624494
-5.81981e-06
-6.16261e-06
-6.78137e-06
-7.71515e-06
-9.00814e-06
-1.07599e-05
-1.31364e-05
-1.64064e-05
-2.09823e-05
-2.74961e-05
-3.68746e-05
-5.04672e-05
-7.12716e-05
-9.73543e-05
-0.00015295
-0.000197942
-0.000333754
-0.000461589
-0.000568805
-0.000554019
-6.8839e-06
-7.34114e-06
-8.14218e-06
-9.32456e-06
-1.09195e-05
-1.30171e-05
-1.57857e-05
-1.94892e-05
-2.45254e-05
-3.14828e-05
-4.13032e-05
-5.40097e-05
-7.66794e-05
-9.368e-05
-0.000151251
-0.000176065
-0.000284597
-0.000341186
-0.000370014
-0.000351717
-7.61138e-06
-8.25959e-06
-9.24608e-06
-1.07127e-05
-1.25347e-05
-1.48612e-05
-1.77876e-05
-2.15906e-05
-2.66041e-05
-3.32162e-05
-4.31244e-05
-5.15977e-05
-7.69895e-05
-8.41139e-05
-0.000134171
-0.000153087
-0.000223308
-0.000252185
-0.000292399
-0.000267058
-7.84287e-06
-8.76869e-06
-9.94051e-06
-1.16744e-05
-1.36678e-05
-1.60788e-05
-1.89847e-05
-2.2571e-05
-2.72244e-05
-3.21694e-05
-4.28351e-05
-4.61851e-05
-7.07703e-05
-7.13383e-05
-0.000110274
-0.000117109
-0.000171651
-0.000176915
-0.000243186
-0.000203318
-7.34442e-06
-8.91371e-06
-1.03961e-05
-1.29872e-05
-1.49313e-05
-1.7658e-05
-2.01116e-05
-2.32095e-05
-2.72672e-05
-2.98769e-05
-4.04779e-05
-4.04204e-05
-5.97448e-05
-5.70733e-05
-8.73584e-05
-8.05687e-05
-0.000119593
-9.03846e-05
-0.000117552
-7.4136e-05
-5.96512e-06
-8.66333e-06
-1.03125e-05
-1.27023e-05
-1.47854e-05
-1.6897e-05
-1.92808e-05
-2.13338e-05
-2.5462e-05
-2.57997e-05
-3.48937e-05
-3.23887e-05
-4.7579e-05
-3.86474e-05
-6.46172e-05
-3.92886e-05
-7.61089e-05
-1.83276e-05
-3.63936e-05
1.55607e-05
-2.46288e-06
-6.21893e-06
-1.02149e-05
-1.46382e-05
-1.72254e-05
-2.0459e-05
-2.15203e-05
-2.32577e-05
-2.54555e-05
-2.45952e-05
-3.06069e-05
-2.60665e-05
-3.80398e-05
-2.54357e-05
-4.68625e-05
-1.96431e-05
-5.00195e-05
5.98951e-06
-4.53494e-05
3.55204e-05
1.51507e-06
-1.05699e-05
-1.0815e-05
-1.48101e-05
-1.62549e-05
-1.73564e-05
-1.85328e-05
-1.86133e-05
-2.01612e-05
-1.85908e-05
-2.27319e-05
-1.62302e-05
-2.59892e-05
-7.6156e-06
-2.89464e-05
1.51264e-05
-2.86211e-05
5.4727e-05
-2.82193e-05
7.25026e-05
1.3334e-05
-2.36607e-07
-8.75806e-06
-1.89084e-05
-2.25099e-05
-2.65498e-05
-2.48617e-05
-2.45832e-05
-2.32184e-05
-2.06253e-05
-2.22131e-05
-1.39298e-05
-2.1618e-05
-3.2354e-06
-2.11266e-05
1.52781e-05
-1.70156e-05
5.90745e-05
-5.12998e-06
0.000116274
1.05831e-05
-3.11672e-05
-1.52025e-05
-2.44047e-05
-2.27348e-05
-1.95913e-05
-1.82452e-05
-1.63708e-05
-1.43256e-05
-1.16071e-05
-1.14421e-05
-3.61392e-06
-7.33885e-06
1.2449e-05
2.43081e-07
4.74756e-05
2.3398e-05
7.818e-05
5.10008e-05
0.000130835
3.03465e-05
-4.33721e-05
-2.51769e-05
-4.25272e-05
-3.74065e-05
-3.96371e-05
-3.09024e-05
-2.64382e-05
-2.1739e-05
-1.99471e-05
-1.59641e-05
-9.08773e-06
-8.71518e-06
3.01244e-06
-1.3274e-06
1.94941e-05
-2.54543e-05
4.97862e-05
-3.74944e-05
0.000133748
-1.27529e-05
-0.000163288
-5.61826e-05
-3.69132e-05
-3.23954e-05
-2.46962e-05
-1.982e-05
-1.6794e-05
-9.18974e-06
-5.76884e-06
-6.57218e-07
4.43896e-06
7.95311e-06
1.70145e-05
2.8175e-06
1.86548e-05
6.71629e-05
6.68584e-05
0.000143883
0.000289818
6.02642e-05
-7.63763e-05
-4.10056e-05
-2.23771e-05
-1.35309e-05
-1.71825e-05
-2.75185e-05
-2.28579e-05
-1.26774e-05
-2.54573e-05
-1.72253e-05
-1.1038e-05
-4.22672e-06
2.3132e-06
1.51072e-06
-2.91112e-05
1.70365e-05
5.76711e-05
2.31923e-05
0.000601643
-7.43136e-05
-4.93169e-05
1.69657e-05
-3.75218e-05
5.77741e-06
-5.96459e-07
-5.12993e-06
7.36874e-06
7.18907e-06
2.51839e-06
5.39594e-06
9.55212e-06
1.94149e-05
3.35088e-05
4.58514e-05
6.73181e-05
4.71004e-05
0.000309846
0.000708913
0.00190802
)
;

boundaryField
{
    movingWall
    {
        type            zeroGradient;
    }
    fixedWalls
    {
        type            zeroGradient;
    }
    frontAndBack
    {
        type            empty;
    }
}


// ************************************************************************* //
