/*--------------------------------*- C++ -*----------------------------------*\
| =========                 |                                                 |
| \\      /  F ield         | OpenFOAM: The Open Source CFD Toolbox           |
|  \\    /   O peration     | Version:  5.x                                   |
|   \\  /    A nd           | Web:      www.OpenFOAM.org                      |
|    \\/     M anipulation  |                                                 |
\*---------------------------------------------------------------------------*/
FoamFile
{
    version     2.0;
    format      ascii;
    class       surfaceScalarField;
    location    "14.2";
    object      phi;
}
// * * * * * * * * * * * * * * * * * * * * * * * * * * * * * * * * * * * * * //

dimensions      [0 3 -1 0 0 0 0];

internalField   nonuniform List<scalar> 
760
(
-1.08114e-06
1.08114e-06
-1.78833e-06
7.07187e-07
-2.14204e-06
3.53712e-07
-2.27381e-06
1.31765e-07
-2.32152e-06
4.77086e-08
-2.3467e-06
2.51877e-08
-2.338e-06
-8.70447e-09
-2.37897e-06
4.09741e-08
-2.36187e-06
-1.70999e-08
-2.40163e-06
3.97592e-08
-2.36606e-06
-3.55768e-08
-2.38011e-06
1.40515e-08
-2.36992e-06
-1.01916e-08
-2.34589e-06
-2.40275e-08
-2.33965e-06
-6.23334e-09
-2.26347e-06
-7.61818e-08
-2.22005e-06
-4.34263e-08
-1.87229e-06
-3.47761e-07
-1.25231e-06
-6.19979e-07
-1.25231e-06
-5.97129e-07
1.67827e-06
-9.45062e-07
1.05512e-06
-9.95092e-07
4.03742e-07
-1.05897e-06
1.95639e-07
-1.04043e-06
2.91722e-08
-1.02069e-06
5.45027e-09
-1.03726e-06
7.86712e-09
-9.99949e-07
3.65867e-09
-1.03376e-06
1.67105e-08
-9.94725e-07
7.25356e-10
-1.02744e-06
-2.85752e-09
-1.01898e-06
5.58921e-09
-1.03887e-06
9.69805e-09
-1.02092e-06
-4.19798e-08
-9.98694e-07
-2.84587e-08
-9.74906e-07
-9.99702e-08
-9.6811e-07
-5.02219e-08
-1.0379e-06
-2.77966e-07
-9.47366e-07
-7.10517e-07
-2.19967e-06
-3.16418e-07
1.99469e-06
-4.4338e-07
1.18208e-06
-3.70767e-07
3.31129e-07
-3.15009e-07
1.39882e-07
-3.04283e-07
1.84458e-08
-2.99314e-07
4.81572e-10
-2.95721e-07
4.27378e-09
-3.17814e-07
2.5752e-08
-2.99755e-07
-1.34875e-09
-3.26225e-07
2.71955e-08
-3.17574e-07
-1.1509e-08
-3.70191e-07
5.82059e-08
-3.85673e-07
2.5181e-08
-4.26622e-07
-1.03105e-09
-3.962e-07
-5.88812e-08
-3.61641e-07
-1.34529e-07
-2.99488e-07
-1.12375e-07
-1.62589e-07
-4.14866e-07
-2.46627e-07
-6.26479e-07
-2.4463e-06
-1.42105e-07
2.13679e-06
-2.22513e-07
1.26249e-06
-2.20843e-07
3.29459e-07
-1.80286e-07
9.93244e-08
-2.02537e-07
4.06968e-08
-2.5577e-07
5.37146e-08
-2.83369e-07
3.18736e-08
-3.13396e-07
5.5779e-08
-3.06756e-07
-7.98861e-09
-3.02719e-07
2.31577e-08
-2.62457e-07
-5.17705e-08
-2.45449e-07
4.11974e-08
-2.09051e-07
-1.1217e-08
-1.91815e-07
-1.82663e-08
-2.02189e-07
-4.8508e-08
-1.22861e-07
-2.13856e-07
-1.92265e-07
-4.29704e-08
-3.03708e-07
-3.03424e-07
-2.50089e-07
-6.80098e-07
-2.69639e-06
-8.05526e-08
2.21735e-06
-7.54446e-08
1.25738e-06
-1.0596e-07
3.59974e-07
-1.42538e-07
1.35902e-07
-1.92435e-07
9.05939e-08
-2.41768e-07
1.03048e-07
-2.77326e-07
6.74321e-08
-2.85763e-07
6.42162e-08
-2.85496e-07
-8.25606e-09
-2.55124e-07
-7.21481e-09
-1.61745e-07
-1.45149e-07
-1.51095e-07
3.05472e-08
-1.06733e-07
-5.5579e-08
-7.69298e-08
-4.80694e-08
-1.07227e-07
-1.82111e-08
-1.3445e-07
-1.86633e-07
-6.15213e-08
-1.15899e-07
2.23255e-08
-3.8727e-07
-2.94624e-08
-6.2831e-07
-2.72585e-06
2.52204e-08
2.19213e-06
2.6837e-08
1.25577e-06
1.29819e-08
3.7383e-07
-1.10494e-07
2.59378e-07
-2.03862e-07
1.83962e-07
-2.63708e-07
1.62893e-07
-3.22155e-07
1.25878e-07
-3.42243e-07
8.43043e-08
-3.52005e-07
1.50603e-09
-3.15401e-07
-4.38183e-08
-1.91842e-07
-2.68708e-07
-1.82642e-07
2.13468e-08
-1.6181e-07
-7.64108e-08
-1.36106e-07
-7.37735e-08
-1.82182e-07
2.78652e-08
-1.95404e-07
-1.73412e-07
-1.47119e-07
-1.64183e-07
-1.20221e-07
-4.14169e-07
-1.24201e-07
-6.24329e-07
-2.85005e-06
-3.78834e-08
2.23001e-06
-7.99099e-09
1.22587e-06
-5.71828e-08
4.23021e-07
-9.97574e-08
3.01953e-07
-2.01055e-07
2.85259e-07
-2.82515e-07
2.44353e-07
-3.37884e-07
1.81248e-07
-3.83639e-07
1.30059e-07
-3.78257e-07
-3.8758e-09
-2.97433e-07
-1.24642e-07
-1.12857e-07
-4.53284e-07
-1.42683e-07
5.11727e-08
-1.15677e-07
-1.03418e-07
-9.27016e-08
-9.67486e-08
-1.17194e-08
-5.3117e-08
4.25769e-08
-2.27708e-07
-4.10533e-08
-8.05532e-08
-1.18664e-08
-4.43356e-07
-2.54748e-09
-6.33648e-07
-2.8526e-06
-3.02854e-08
2.2603e-06
-1.84582e-08
1.21405e-06
-4.30138e-08
4.47577e-07
-1.54665e-07
4.13605e-07
-2.71154e-07
4.01748e-07
-3.80093e-07
3.53293e-07
-4.59068e-07
2.60222e-07
-4.73824e-07
1.44816e-07
-4.66997e-07
-1.07029e-08
-2.92523e-07
-2.99117e-07
-1.7841e-07
-5.67397e-07
-2.36131e-07
1.08894e-07
-2.66558e-07
-7.29903e-08
-2.74661e-07
-8.8645e-08
-1.95732e-07
-1.32047e-07
-2.5785e-07
-1.6559e-07
-2.00197e-07
-1.38205e-07
-3.86708e-08
-6.04883e-07
-6.51016e-08
-6.07217e-07
-2.9177e-06
-5.4523e-09
2.26575e-06
-1.82948e-08
1.22689e-06
-8.45265e-08
5.13809e-07
-2.23021e-07
5.52099e-07
-2.89913e-07
4.68639e-07
-3.51697e-07
4.15078e-07
-4.81239e-07
3.89764e-07
-5.50933e-07
2.1451e-07
-4.52481e-07
-1.09155e-07
-1.87099e-07
-5.64498e-07
-1.02821e-07
-6.51675e-07
-1.80589e-07
1.86661e-07
-1.86185e-07
-6.73949e-08
-2.24167e-07
-5.06627e-08
-2.67304e-07
-8.89101e-08
-2.76798e-07
-1.56095e-07
-2.26736e-07
-1.88268e-07
-9.97056e-08
-7.31913e-07
-9.1949e-09
-6.97728e-07
-2.9269e-06
-5.85777e-08
2.32433e-06
-1.03963e-07
1.27227e-06
-1.78332e-07
5.88178e-07
-2.00028e-07
5.73796e-07
-2.9293e-07
5.61541e-07
-4.39187e-07
5.61335e-07
-6.0116e-07
5.51737e-07
-6.94567e-07
3.07917e-07
-5.81229e-07
-2.22493e-07
-3.53026e-07
-7.92701e-07
-2.87974e-07
-7.16727e-07
-2.96472e-07
1.9516e-07
-2.95613e-07
-6.82544e-08
-3.15173e-07
-3.11021e-08
-4.02987e-07
-1.09669e-09
-3.60984e-07
-1.98098e-07
-2.82579e-07
-2.66673e-07
-3.06769e-07
-7.07723e-07
-6.92466e-08
-9.3525e-07
-2.99614e-06
1.91768e-08
2.30515e-06
4.80857e-09
1.28664e-06
-1.61988e-08
6.09185e-07
2.65715e-08
5.31026e-07
-1.34723e-07
7.22835e-07
-4.94298e-07
9.2091e-07
-7.38761e-07
7.962e-07
-7.36192e-07
3.05347e-07
-6.73286e-07
-2.85399e-07
-5.44693e-07
-9.21294e-07
-2.81739e-07
-9.79681e-07
-2.08336e-08
-6.57454e-08
5.17398e-08
-1.40828e-07
-5.81122e-08
7.87499e-08
-1.04309e-07
4.51002e-08
-6.60113e-08
-2.36396e-07
1.88108e-09
-3.34565e-07
-1.04176e-07
-6.01666e-07
-7.72737e-08
-9.62153e-07
-3.07342e-06
5.6901e-08
2.24825e-06
6.0665e-08
1.28288e-06
7.09004e-08
5.9895e-07
-1.2754e-07
7.29466e-07
-3.62582e-07
9.57878e-07
-5.52941e-07
1.11127e-06
-7.19638e-07
9.62897e-07
-7.07075e-07
2.92784e-07
-6.88275e-07
-3.04199e-07
-6.52702e-07
-9.56867e-07
-4.69984e-07
-1.1624e-06
-4.74852e-08
-4.88244e-07
1.1622e-07
-3.04533e-07
1.87958e-07
7.01118e-09
2.50154e-07
-1.70958e-08
1.19869e-07
-1.0611e-07
1.87639e-07
-4.02336e-07
1.21749e-07
-5.35776e-07
1.11594e-08
-8.51563e-07
-3.06226e-06
4.72985e-08
2.20095e-06
8.92976e-08
1.24088e-06
-6.98273e-08
7.58075e-07
-1.97677e-07
8.57316e-07
-2.73801e-07
1.034e-06
-3.3321e-07
1.17068e-06
-2.94756e-07
9.24443e-07
-2.4353e-07
2.41558e-07
-1.4732e-07
-4.00409e-07
-1.13023e-07
-9.91164e-07
-8.25296e-08
-1.19289e-06
2.06707e-07
-7.7748e-07
3.86863e-07
-4.84689e-07
4.60082e-07
-6.62078e-08
4.42899e-07
8.72335e-11
2.30674e-07
1.06115e-07
8.29169e-08
-2.54578e-07
2.96896e-08
-4.82548e-07
-1.06297e-08
-8.11244e-07
-3.07289e-06
8.80977e-08
2.11285e-06
8.32267e-08
1.24575e-06
1.30951e-07
7.10351e-07
1.4301e-07
8.45256e-07
8.89235e-08
1.08809e-06
1.23244e-07
1.13636e-06
2.69183e-07
7.78505e-07
3.31588e-07
1.79153e-07
3.57477e-07
-4.26299e-07
3.56232e-07
-9.89919e-07
1.45406e-07
-9.82068e-07
1.22986e-07
-7.5506e-07
-1.49926e-07
-2.11777e-07
-3.01431e-07
8.52976e-08
-3.52469e-07
5.1125e-08
-5.28971e-07
2.82617e-07
-3.91695e-07
-3.91855e-07
-2.67932e-07
-6.06311e-07
-1.9002e-09
-1.07728e-06
-3.07479e-06
6.55811e-08
2.04727e-06
1.47142e-07
1.16419e-06
1.92966e-07
6.64527e-07
2.59593e-07
7.7863e-07
4.10075e-07
9.37606e-07
5.96842e-07
9.49591e-07
7.80511e-07
5.94835e-07
9.07072e-07
5.25921e-08
9.54291e-07
-4.73518e-07
8.85719e-07
-9.21347e-07
6.8572e-07
-7.82068e-07
6.35011e-07
-7.04351e-07
6.64179e-07
-2.40945e-07
3.06712e-07
4.42764e-07
1.75688e-07
1.82149e-07
2.30634e-07
2.27671e-07
1.07485e-07
-2.68705e-07
-8.33249e-08
-4.15501e-07
-5.84089e-08
-1.10219e-06
-3.1332e-06
1.00854e-07
1.94642e-06
2.52577e-07
1.01246e-06
3.20655e-07
5.96448e-07
4.33256e-07
6.66029e-07
8.8392e-07
4.86941e-07
1.09676e-06
7.36753e-07
1.35989e-06
3.31706e-07
1.42407e-06
-1.15923e-08
1.45015e-06
-4.99593e-07
1.36608e-06
-8.37276e-07
1.04799e-06
-4.63984e-07
7.02534e-07
-3.58893e-07
7.48238e-07
-2.86648e-07
6.0393e-07
5.87072e-07
5.446e-07
2.41479e-07
6.20392e-07
1.51879e-07
4.28606e-07
-7.69193e-08
2.21666e-07
-2.08561e-07
2.43768e-07
-1.12429e-06
-2.88943e-06
9.92032e-08
1.84721e-06
2.09366e-07
9.02302e-07
3.46809e-07
4.59006e-07
6.24121e-07
3.88717e-07
8.3091e-07
2.80152e-07
1.10876e-06
4.58902e-07
1.31523e-06
1.25232e-07
1.51738e-06
-2.13739e-07
1.64121e-06
-6.23417e-07
1.38607e-06
-5.82138e-07
6.59443e-07
2.6264e-07
-1.49672e-07
4.50223e-07
-7.40107e-07
3.03786e-07
-3.8598e-07
2.32945e-07
-1.10162e-07
-3.43381e-08
-2.22313e-07
2.6403e-07
2.59612e-07
-5.58844e-07
3.51183e-07
-3.00132e-07
-1.47912e-08
-7.5832e-07
-2.90422e-06
3.31835e-07
1.51538e-06
3.7365e-07
8.60486e-07
3.96683e-07
4.35973e-07
5.36418e-07
2.48982e-07
7.61836e-07
5.47344e-08
1.22528e-06
-4.54076e-09
1.38799e-06
-3.74758e-08
1.55821e-06
-3.83959e-07
1.52512e-06
-5.90332e-07
1.2935e-06
-3.50519e-07
1.21447e-06
3.41673e-07
1.23061e-06
4.34081e-07
9.57296e-07
5.771e-07
9.91792e-07
1.98449e-07
1.29398e-06
-3.36521e-07
1.36022e-06
1.97783e-07
1.21205e-06
-4.10671e-07
7.7844e-07
1.33476e-07
4.66677e-07
-4.46557e-07
-2.43754e-06
4.58627e-07
1.05675e-06
6.78389e-07
6.40724e-07
7.33069e-07
3.81294e-07
7.72224e-07
2.09827e-07
6.95584e-07
1.31374e-07
5.64476e-07
1.26568e-07
3.79101e-07
1.47899e-07
-2.02603e-07
1.97745e-07
-9.18993e-07
1.26059e-07
-1.31342e-06
4.39076e-08
-1.01769e-06
4.59437e-08
-5.87591e-07
3.9822e-09
-1.34303e-07
1.23812e-07
8.73964e-08
-2.32504e-08
-1.73868e-07
-7.52573e-08
1.06222e-07
-8.23073e-08
-2.9612e-07
-8.32888e-09
-7.84349e-08
-8.42084e-08
6.21942e-07
-1.14693e-06
-1.8156e-06
1.05675e-06
1.69748e-06
2.07877e-06
2.2886e-06
2.41997e-06
2.54654e-06
2.69444e-06
2.89218e-06
3.01824e-06
3.06215e-06
3.10809e-06
3.11207e-06
3.23589e-06
3.21264e-06
3.13738e-06
3.05507e-06
3.04674e-06
2.96253e-06
1.8156e-06
)
;

boundaryField
{
    movingWall
    {
        type            calculated;
        value           uniform 0;
    }
    fixedWalls
    {
        type            calculated;
        value           uniform 0;
    }
    frontAndBack
    {
        type            empty;
        value           nonuniform 0();
    }
}


// ************************************************************************* //
