/*--------------------------------*- C++ -*----------------------------------*\
| =========                 |                                                 |
| \\      /  F ield         | OpenFOAM: The Open Source CFD Toolbox           |
|  \\    /   O peration     | Version:  5.x                                   |
|   \\  /    A nd           | Web:      www.OpenFOAM.org                      |
|    \\/     M anipulation  |                                                 |
\*---------------------------------------------------------------------------*/
FoamFile
{
    version     2.0;
    format      ascii;
    class       volVectorField;
    location    "14.2";
    object      U;
}
// * * * * * * * * * * * * * * * * * * * * * * * * * * * * * * * * * * * * * //

dimensions      [0 1 -1 0 0 0 0];

internalField   nonuniform List<vector> 
400
(
(-0.0149302 0.00849016 0)
(-0.0320248 0.00397075 0)
(-0.0402255 0.00305309 0)
(-0.0442275 -0.000409406 0)
(-0.0452743 -0.000193522 0)
(-0.0469519 -0.000608583 0)
(-0.0457524 -0.00101563 0)
(-0.0483886 0.00080996 0)
(-0.0457875 -0.00155754 0)
(-0.0496698 0.00118339 0)
(-0.0457231 -0.00212528 0)
(-0.0489529 0.000922616 0)
(-0.0463354 -0.00113996 0)
(-0.0479289 -0.00019941 0)
(-0.047641 -0.000943102 0)
(-0.0465954 -0.00113367 0)
(-0.045547 -0.000851794 0)
(-0.040422 -0.00493685 0)
(-0.039946 -0.00703746 0)
(-0.00366114 -0.0159707 0)
(-0.00876223 0.0306926 0)
(-0.0175368 0.0215436 0)
(-0.0190946 0.00954811 0)
(-0.0205501 0.00493627 0)
(-0.0205971 0.00182752 0)
(-0.0213599 0.00149353 0)
(-0.0185142 0.000751889 0)
(-0.0235442 0.000919456 0)
(-0.0160026 0.000946275 0)
(-0.0254582 0.000443383 0)
(-0.0147869 0.000597425 0)
(-0.0253118 -0.000321804 0)
(-0.0167802 0.000603039 0)
(-0.0233467 -0.000886142 0)
(-0.0191153 0.000595957 0)
(-0.0190512 -0.00219961 0)
(-0.0219611 -0.00142599 0)
(-0.0145346 -0.0108638 0)
(-0.0310624 -0.0212037 0)
(-0.00175154 -0.0392236 0)
(-0.00510707 0.0381639 0)
(-0.00917772 0.0215543 0)
(-0.00739769 0.00736469 0)
(-0.00785659 0.00335094 0)
(-0.00417046 -0.000534277 0)
(-0.00832191 -0.00128397 0)
(-0.00334622 -0.000514007 0)
(-0.00839375 -0.00079591 0)
(-0.00455102 -0.000356408 0)
(-0.00718417 -0.000398967 0)
(-0.00619744 -0.000689505 0)
(-0.00607751 0.000523575 0)
(-0.00930297 -9.88536e-05 0)
(-0.00545765 -0.00063988 0)
(-0.0124748 -0.00154967 0)
(-0.00248724 -0.0015558 0)
(-0.0127703 -0.0001241 0)
(0.00126797 0.000788965 0)
(-0.00856699 -0.00418938 0)
(0.000218438 -0.046259 0)
(-0.00108502 0.0422172 0)
(-0.00539987 0.027098 0)
(-0.00299318 0.00600938 0)
(-0.00543295 0.00256949 0)
(-0.00189342 0.00126757 0)
(-0.00603242 0.00131411 0)
(-0.00432368 0.000721392 0)
(-0.00690375 0.00188014 0)
(-0.00580313 0.000323588 0)
(-0.00626753 0.00142006 0)
(-0.00608429 0.000233308 0)
(-0.00403166 0.00184372 0)
(-0.00630673 0.000975291 0)
(-0.00153254 0.000579021 0)
(-0.00669442 -0.000995447 0)
(-0.000792853 -0.00406029 0)
(-0.00458188 -0.00469673 0)
(-0.00230671 -0.0169164 0)
(-0.0113737 -0.0231271 0)
(0.00287169 -0.0522984 0)
(-0.00326403 0.0448161 0)
(-0.000472695 0.0233652 0)
(-0.00220741 0.00746318 0)
(-0.00213478 0.00114693 0)
(-0.00335126 0.000409536 0)
(-0.00455217 0.000721183 0)
(-0.00520963 0.000516428 0)
(-0.00570415 0.000383325 0)
(-0.00601158 -0.000672266 0)
(-0.00507495 -0.000434454 0)
(-0.00538309 -0.00235473 0)
(-0.000873111 -0.000262825 0)
(-0.00547699 -0.00136605 0)
(0.00148573 -0.00134673 0)
(-0.00482398 -0.000801482 0)
(0.000904129 -0.00434417 0)
(-0.00670873 0.00304926 0)
(0.00446328 0.00432802 0)
(-0.00368874 -0.0018935 0)
(0.0027093 -0.0528488 0)
(0.0011545 0.0448984 0)
(-0.000336322 0.0283315 0)
(0.00155138 0.00744029 0)
(-0.00105089 0.00459617 0)
(-0.00326687 0.00325091 0)
(-0.00487163 0.0034777 0)
(-0.00585647 0.00214301 0)
(-0.00679199 0.0021747 0)
(-0.00719935 0.000356077 0)
(-0.00657186 0.000128005 0)
(-0.00609124 -0.00324584 0)
(-0.00143233 0.00158816 0)
(-0.00622308 -0.000750781 0)
(0.00015097 -0.000413734 0)
(-0.00601494 6.7756e-05 0)
(-0.000711187 -0.00277116 0)
(-0.00773381 -0.00767645 0)
(0.0024614 -0.0193281 0)
(-0.00790066 -0.0247701 0)
(0.00351782 -0.0574813 0)
(-0.00231977 0.0439069 0)
(0.000699943 0.0220214 0)
(-0.000992587 0.00772433 0)
(-0.00141312 0.00562938 0)
(-0.00243133 0.00428349 0)
(-0.00555431 0.00323251 0)
(-0.00594696 0.0030659 0)
(-0.00740493 0.00130744 0)
(-0.00813759 -0.000279192 0)
(-0.00668739 -0.00181577 0)
(-0.00507034 -0.00771979 0)
(0.000454709 -0.000844418 0)
(-0.0064042 -0.00252875 0)
(0.00206072 -0.00280791 0)
(-0.00602145 0.000919665 0)
(0.0056278 -0.00466082 0)
(-0.00411789 0.00139087 0)
(0.00276842 0.00247203 0)
(-0.00343428 0.000854276 0)
(0.00341557 -0.054733 0)
(-0.000847702 0.0451164 0)
(-0.000599926 0.0257041 0)
(3.91826e-05 0.00873828 0)
(-0.00189948 0.00651836 0)
(-0.00438599 0.0068766 0)
(-0.00636767 0.00630169 0)
(-0.00907982 0.00404772 0)
(-0.00904292 0.00389122 0)
(-0.0101787 9.83805e-05 0)
(-0.00819062 -0.00327175 0)
(-0.00361388 -0.00993867 0)
(-0.00319707 0.00313858 0)
(-0.00666446 -0.00124907 0)
(-0.00352465 -0.000655838 0)
(-0.00794975 -0.00275388 0)
(0.000625787 -0.00383094 0)
(-0.0118095 -0.00488351 0)
(0.0047565 -0.0195874 0)
(-0.00673343 -0.026183 0)
(0.00460186 -0.0598431 0)
(0.000440323 0.0446006 0)
(-0.000624083 0.0242363 0)
(-0.000149459 0.00957961 0)
(-0.00323996 0.00982394 0)
(-0.0055145 0.0095475 0)
(-0.00619739 0.00818551 0)
(-0.00822138 0.00663891 0)
(-0.0108549 0.0021791 0)
(-0.0108896 -0.000446445 0)
(-0.00668303 -0.00860361 0)
(-0.00132306 -0.0136548 0)
(-0.00249797 0.00082016 0)
(-0.00493136 -0.00204464 0)
(-0.00224804 -0.00338188 0)
(-0.00718716 -0.00309504 0)
(-0.00292487 -0.00327528 0)
(-0.00878266 -0.000275489 0)
(0.000523996 -0.00508037 0)
(-0.00518673 0.00103583 0)
(0.0050101 -0.0559047 0)
(-0.00105895 0.0468836 0)
(-0.0013984 0.0239606 0)
(-0.00271268 0.0104553 0)
(-0.00413694 0.0124993 0)
(-0.00409253 0.00877759 0)
(-0.00759414 0.00802678 0)
(-0.0103623 0.00920643 0)
(-0.014027 0.00652439 0)
(-0.0135671 -0.00371708 0)
(-0.00891536 -0.0132301 0)
(-0.00554042 -0.0113501 0)
(-0.00645923 0.00698884 0)
(-0.00499356 -0.000265971 0)
(-0.00634423 0.00177918 0)
(-0.00694122 0.000140132 0)
(-0.00850839 -0.00242467 0)
(-0.00667118 -0.00679492 0)
(-0.00395489 -0.0240547 0)
(-0.008959 -0.0277542 0)
(0.00645531 -0.0628396 0)
(0.000184592 0.0446319 0)
(0.000350924 0.0255748 0)
(-3.81225e-05 0.0127715 0)
(-0.000706835 0.00972003 0)
(0.00184263 0.0139418 0)
(-0.00701984 0.0151046 0)
(-0.0135702 0.0135846 0)
(-0.015727 0.00644666 0)
(-0.0140558 -0.00471341 0)
(-0.0120724 -0.0182029 0)
(-0.00904843 -0.0181772 0)
(-0.00258313 0.000262011 0)
(0.0016855 -0.00295084 0)
(0.000668456 -0.00340307 0)
(-0.00348069 -0.000350619 0)
(1.03621e-05 -0.0063813 0)
(-0.00322994 -0.00506205 0)
(0.00341807 -0.00546058 0)
(-0.00821762 -0.01122 0)
(0.00560106 -0.0578042 0)
(0.00160551 0.0485882 0)
(0.000831088 0.0277671 0)
(0.00147098 0.0122978 0)
(0.00154403 0.0122914 0)
(-0.00648826 0.0151138 0)
(-0.00808269 0.0209191 0)
(-0.0151881 0.0173891 0)
(-0.0136114 0.00493738 0)
(-0.0156791 -0.00763268 0)
(-0.0108146 -0.0200285 0)
(-0.0140637 -0.0207221 0)
(-0.0045329 -0.00246651 0)
(0.00232529 -0.00178621 0)
(0.00270583 0.00727003 0)
(0.00410189 0.0027447 0)
(0.00669945 -0.00198852 0)
(-0.00250145 -0.00704218 0)
(0.0108493 -0.0172331 0)
(-0.0066726 -0.026117 0)
(0.00729657 -0.0628073 0)
(-8.09954e-05 0.0417244 0)
(0.00176122 0.0221796 0)
(0.0020703 0.0111372 0)
(-0.00470996 0.0158931 0)
(-0.00287241 0.0221231 0)
(-0.00784174 0.0221176 0)
(-0.00679769 0.0192182 0)
(-0.0043816 0.00579024 0)
(-0.00610273 -0.00549252 0)
(0.000818829 -0.0193103 0)
(-0.00477206 -0.0270093 0)
(0.00204506 -0.0179555 0)
(0.00496955 -0.0119039 0)
(0.0115609 -0.00722878 0)
(0.00575667 -0.00378289 0)
(0.0129552 -0.00287215 0)
(-0.00412272 -0.00964695 0)
(0.00777944 -0.00516874 0)
(-0.00683953 -0.00875439 0)
(0.00649311 -0.0598823 0)
(0.00302185 0.0446399 0)
(0.000759379 0.0284572 0)
(0.00228724 0.0190755 0)
(0.00343718 0.0193568 0)
(0.00212812 0.0196489 0)
(0.00161652 0.0248652 0)
(0.00250041 0.0187004 0)
(0.0089249 0.00461604 0)
(0.0036717 -0.00955671 0)
(0.0108929 -0.0197194 0)
(0.00467493 -0.0197239 0)
(0.00180512 -0.0117563 0)
(0.00229753 -0.00581554 0)
(-0.0079384 0.00525912 0)
(-0.0040409 0.0039894 0)
(-0.0108899 0.00772468 0)
(-0.0104154 0.00060531 0)
(-0.00430399 -0.0126082 0)
(-0.00662815 -0.0213684 0)
(0.00646806 -0.0649054 0)
(-0.0020628 0.0412 0)
(0.00463237 0.0204974 0)
(0.00125618 0.0090789 0)
(0.00681404 0.013301 0)
(0.00407643 0.0235442 0)
(0.0120079 0.0202224 0)
(0.0102364 0.0116402 0)
(0.0205856 0.00190233 0)
(0.0166191 -0.00777573 0)
(0.0207388 -0.0191113 0)
(0.0171016 -0.0182239 0)
(0.00925459 -0.0198796 0)
(0.0162415 -0.00220196 0)
(0.00904787 -0.00226562 0)
(0.00355454 -0.00263985 0)
(0.00393056 0.00213213 0)
(0.0039858 -0.0189387 0)
(0.00137178 -0.0144611 0)
(-0.00564467 -0.0261997 0)
(0.00405084 -0.0605863 0)
(0.00236647 0.0396665 0)
(0.00135452 0.0260648 0)
(0.00846285 0.0180015 0)
(0.00509843 0.0191409 0)
(0.0121087 0.0149946 0)
(0.022091 0.0185264 0)
(0.0208242 0.013507 0)
(0.0323112 0.000595195 0)
(0.0245914 -0.0101629 0)
(0.0338419 -0.0167384 0)
(0.022553 -0.0147083 0)
(0.0216012 -0.00885122 0)
(0.00451021 -0.00757166 0)
(0.0235766 0.0197007 0)
(0.00313089 0.0110996 0)
(0.016559 0.00853648 0)
(0.00946698 0.0107313 0)
(0.00836639 0.000340345 0)
(0.00026495 -0.0125113 0)
(0.00898633 -0.0613077 0)
(-0.000481341 0.037876 0)
(0.00471655 0.0159331 0)
(0.00297811 0.00605383 0)
(0.0116199 0.00686328 0)
(0.0139623 0.00489292 0)
(0.0186181 0.0121004 0)
(0.0247609 0.000421349 0)
(0.0283431 -0.0008793 0)
(0.0312283 -0.00846972 0)
(0.03329 -0.0143077 0)
(0.0237009 -0.0016457 0)
(0.00583127 -0.00348674 0)
(-0.0137357 -0.00568008 0)
(-0.0139848 0.00141642 0)
(0.00112567 -0.0019765 0)
(-0.00685976 -0.00364667 0)
(-0.00257094 -0.0150473 0)
(0.0149282 -0.0103243 0)
(-0.00370421 -0.0386583 0)
(0.00367341 -0.0596488 0)
(0.00127377 0.0350258 0)
(0.0109672 0.0186478 0)
(0.00412586 0.0116049 0)
(0.0123324 0.00911714 0)
(0.0098387 0.00665601 0)
(0.0203413 0.00586446 0)
(0.0275066 0.0039908 0)
(0.0297487 -0.00876721 0)
(0.0316696 -0.0179038 0)
(0.0257419 -0.010724 0)
(0.0277618 0.0105653 0)
(0.0238583 0.018748 0)
(0.0225908 0.0198656 0)
(0.0184745 0.00975331 0)
(0.0194938 0.000572991 0)
(0.0288648 0.014591 0)
(0.027406 -0.00505026 0)
(0.024119 0.00107586 0)
(0.00486285 0.0136302 0)
(0.0157841 -0.0489601 0)
(-0.000335796 0.0270935 0)
(0.0167187 0.0158901 0)
(0.0118115 0.00641708 0)
(0.0162905 0.000411115 0)
(0.0159746 -0.00422462 0)
(0.0110317 -0.00597254 0)
(0.0122721 -0.00497738 0)
(0.00475399 -0.00428255 0)
(-0.0138858 -0.00597786 0)
(-0.0269659 -0.00587454 0)
(-0.0232959 0.000793083 0)
(-0.0125089 0.00065961 0)
(-0.0144599 0.00129326 0)
(0.0106801 -0.00104365 0)
(-0.00841946 -0.0150151 0)
(0.00254748 -0.00567561 0)
(0.00285202 -0.0111941 0)
(-0.0179086 0.00171 0)
(0.0162229 -0.0352102 0)
(0.0103623 -0.0592794 0)
(0.0105165 0.0177453 0)
(0.0289517 0.0118814 0)
(0.038386 0.00968586 0)
(0.0448758 0.0083364 0)
(0.0482281 0.00885217 0)
(0.050671 0.0103298 0)
(0.0507802 0.00977639 0)
(0.0562199 0.0104789 0)
(0.0563536 0.0111934 0)
(0.0649976 0.00874203 0)
(0.0596877 0.00215894 0)
(0.0641264 -0.000591802 0)
(0.061919 0.00422872 0)
(0.0643302 -0.000499067 0)
(0.0658426 0.0122832 0)
(0.0620454 0.00248123 0)
(0.0609466 0.011002 0)
(0.0561577 -0.00312425 0)
(0.054672 -0.00515656 0)
(0.0284809 -0.00166611 0)
)
;

boundaryField
{
    movingWall
    {
        type            fixedValue;
        value           uniform (1 0 0);
    }
    fixedWalls
    {
        type            noSlip;
    }
    frontAndBack
    {
        type            empty;
    }
}


// ************************************************************************* //
