/*--------------------------------*- C++ -*----------------------------------*\
| =========                 |                                                 |
| \\      /  F ield         | OpenFOAM: The Open Source CFD Toolbox           |
|  \\    /   O peration     | Version:  5.x                                   |
|   \\  /    A nd           | Web:      www.OpenFOAM.org                      |
|    \\/     M anipulation  |                                                 |
\*---------------------------------------------------------------------------*/
FoamFile
{
    version     2.0;
    format      ascii;
    class       volScalarField;
    location    "1.2";
    object      p;
}
// * * * * * * * * * * * * * * * * * * * * * * * * * * * * * * * * * * * * * //

dimensions      [0 2 -2 0 0 0 0];

internalField   nonuniform List<scalar> 
400
(
-4.54507e-12
2.89865e-07
8.81866e-07
1.76728e-06
2.93477e-06
4.36798e-06
6.04523e-06
7.93897e-06
1.00153e-05
1.22337e-05
1.45469e-05
1.69015e-05
1.92367e-05
2.14881e-05
2.35881e-05
2.54687e-05
2.70643e-05
2.83157e-05
2.91743e-05
2.96023e-05
-3.01852e-07
-8.27387e-09
5.91608e-07
1.48931e-06
2.67387e-06
4.12933e-06
5.83439e-06
7.76177e-06
9.87771e-06
1.21416e-05
1.45058e-05
1.69169e-05
1.93123e-05
2.16257e-05
2.37877e-05
2.57274e-05
2.73761e-05
2.86713e-05
2.95611e-05
3.0005e-05
-9.30866e-07
-6.29595e-07
-1.33512e-08
9.09885e-07
2.12993e-06
3.63164e-06
5.39447e-06
7.39172e-06
9.58993e-06
1.19484e-05
1.44189e-05
1.69467e-05
1.94668e-05
2.19098e-05
2.42015e-05
2.62654e-05
2.80262e-05
2.94139e-05
3.03698e-05
3.08474e-05
-1.8933e-06
-1.58073e-06
-9.40358e-07
2.07033e-08
1.29356e-06
2.86443e-06
4.71403e-06
6.81665e-06
9.13941e-06
1.16415e-05
1.42739e-05
1.69808e-05
1.96933e-05
2.2337e-05
2.4831e-05
2.709e-05
2.90279e-05
3.05629e-05
3.16247e-05
3.21567e-05
-3.20427e-06
-2.87735e-06
-2.20606e-06
-1.19614e-06
1.45519e-07
1.80721e-06
3.77159e-06
6.01453e-06
8.50416e-06
1.11999e-05
1.40518e-05
1.70031e-05
1.99802e-05
2.29026e-05
2.56803e-05
2.82157e-05
3.04073e-05
3.21554e-05
3.3372e-05
3.3984e-05
-4.88311e-06
-4.53965e-06
-3.83219e-06
-2.76432e-06
-1.33997e-06
4.32243e-07
2.53781e-06
4.95494e-06
7.65351e-06
1.05939e-05
1.37256e-05
1.69895e-05
2.03093e-05
2.35971e-05
2.67519e-05
2.96598e-05
3.21984e-05
3.42425e-05
3.56769e-05
3.64028e-05
-6.95332e-06
-6.59242e-06
-5.84586e-06
-4.71389e-06
-3.19599e-06
-1.29641e-06
9.74326e-07
3.59775e-06
6.54631e-06
9.78251e-06
1.32582e-05
1.69044e-05
2.06516e-05
2.44027e-05
2.80432e-05
3.14402e-05
3.44432e-05
3.68915e-05
3.86293e-05
3.95168e-05
-9.44175e-06
-9.06456e-06
-8.27947e-06
-7.08152e-06
-5.46359e-06
-3.42376e-06
-9.67175e-07
1.89199e-06
5.1295e-06
8.71028e-06
1.25871e-05
1.66961e-05
2.09635e-05
2.52877e-05
2.95417e-05
3.35704e-05
3.7189e-05
4.01875e-05
4.23491e-05
4.347e-05
-1.23774e-05
-1.19883e-05
-1.11706e-05
-9.91104e-06
-8.19268e-06
-6.00497e-06
-3.34617e-06
-2.25234e-07
3.33766e-06
7.31077e-06
1.165e-05
1.62982e-05
2.1182e-05
2.61995e-05
3.12154e-05
3.60519e-05
4.0483e-05
4.42337e-05
4.6995e-05
4.84646e-05
-1.57896e-05
-1.5398e-05
-1.45621e-05
-1.32545e-05
-1.14436e-05
-9.10702e-06
-6.23473e-06
-2.82992e-06
1.09143e-06
5.50166e-06
1.0362e-05
1.56221e-05
2.12181e-05
2.70552e-05
3.29997e-05
3.88583e-05
4.436e-05
4.91483e-05
5.27725e-05
5.47911e-05
-1.9704e-05
-1.93288e-05
-1.85028e-05
-1.7174e-05
-1.52895e-05
-1.28111e-05
-9.71927e-06
-6.01243e-06
-1.70352e-06
3.18328e-06
8.61542e-06
1.45524e-05
2.09488e-05
2.77291e-05
3.47788e-05
4.19102e-05
4.88177e-05
5.50516e-05
5.99385e-05
6.28789e-05
-2.41415e-05
-2.38155e-05
-2.30494e-05
-2.17463e-05
-1.98213e-05
-1.72161e-05
-1.39028e-05
-9.8779e-06
-5.15525e-06
2.41356e-07
6.28469e-06
1.29473e-05
2.02109e-05
2.80378e-05
3.63608e-05
4.5036e-05
5.37657e-05
6.20318e-05
6.87894e-05
7.33853e-05
-2.90706e-05
-2.88818e-05
-2.82695e-05
-2.70696e-05
-2.5155e-05
-2.24448e-05
-1.89074e-05
-1.45451e-05
-9.38165e-06
-3.4472e-06
3.23206e-06
1.06416e-05
1.87992e-05
2.77262e-05
3.74446e-05
4.7917e-05
5.89355e-05
7.00591e-05
7.95961e-05
8.73382e-05
-3.45607e-05
-3.45917e-05
-3.42772e-05
-3.32829e-05
-3.14464e-05
-2.86515e-05
-2.48755e-05
-2.01426e-05
-1.45019e-05
-8.00248e-06
-6.76063e-07
7.47728e-06
1.64798e-05
2.64629e-05
3.75829e-05
4.99993e-05
6.37275e-05
7.87721e-05
9.23531e-05
0.000106336
-3.95016e-05
-4.09085e-05
-4.11575e-05
-4.05908e-05
-3.89154e-05
-3.60366e-05
-3.19736e-05
-2.68022e-05
-2.06228e-05
-1.35237e-05
-5.55882e-06
3.25802e-06
1.29526e-05
2.37899e-05
3.60661e-05
5.02722e-05
6.68469e-05
8.73785e-05
0.000106071
0.000132691
-4.7272e-05
-4.79379e-05
-4.93969e-05
-4.91992e-05
-4.78197e-05
-4.48328e-05
-4.03835e-05
-3.46474e-05
-2.78199e-05
-2.00512e-05
-1.14219e-05
-1.87066e-06
8.85742e-06
2.04773e-05
3.38765e-05
5.0008e-05
6.94869e-05
9.58827e-05
0.000119458
0.000167132
-4.88339e-05
-6.13488e-05
-5.93059e-05
-6.09341e-05
-5.92593e-05
-5.5728e-05
-5.04739e-05
-4.38689e-05
-3.61872e-05
-2.76687e-05
-1.85533e-05
-9.05723e-06
4.36897e-07
1.02669e-05
2.11685e-05
3.46924e-05
4.90471e-05
8.81591e-05
0.000105169
0.000202578
-5.70093e-05
-5.34555e-05
-6.65182e-05
-6.65566e-05
-6.80316e-05
-6.55075e-05
-6.05616e-05
-5.35234e-05
-4.50317e-05
-3.55654e-05
-2.55008e-05
-1.48514e-05
-3.77065e-06
9.01261e-06
2.22046e-05
4.01927e-05
5.76818e-05
9.52446e-05
0.000101035
0.000227365
-4.5054e-05
-0.000110275
-9.23943e-05
-0.000104146
-9.75847e-05
-9.03099e-05
-8.02199e-05
-6.92375e-05
-5.79161e-05
-4.64281e-05
-3.53451e-05
-2.44058e-05
-1.55683e-05
-7.16637e-06
-6.58237e-06
-2.34188e-07
-2.85599e-05
3.55125e-05
-1.36261e-05
0.000226324
-0.000129397
-7.80622e-05
-8.30819e-05
-9.64826e-05
-9.70368e-05
-9.1461e-05
-8.36307e-05
-7.38535e-05
-6.27592e-05
-5.08012e-05
-3.95631e-05
-2.70792e-05
-1.87639e-05
-5.8216e-06
-4.81834e-06
1.12967e-05
1.98444e-05
0.000100999
0.000285503
0.000701252
)
;

boundaryField
{
    movingWall
    {
        type            zeroGradient;
    }
    fixedWalls
    {
        type            zeroGradient;
    }
    frontAndBack
    {
        type            empty;
    }
}


// ************************************************************************* //
