/*--------------------------------*- C++ -*----------------------------------*\
| =========                 |                                                 |
| \\      /  F ield         | OpenFOAM: The Open Source CFD Toolbox           |
|  \\    /   O peration     | Version:  5.x                                   |
|   \\  /    A nd           | Web:      www.OpenFOAM.org                      |
|    \\/     M anipulation  |                                                 |
\*---------------------------------------------------------------------------*/
FoamFile
{
    version     2.0;
    format      ascii;
    class       volScalarField;
    location    "12.3";
    object      p;
}
// * * * * * * * * * * * * * * * * * * * * * * * * * * * * * * * * * * * * * //

dimensions      [0 2 -2 0 0 0 0];

internalField   nonuniform List<scalar> 
400
(
7.28799e-10
-0.00046021
-0.000809722
-0.00103275
-0.00113124
-0.00118333
-0.00119662
-0.00120332
-0.00120926
-0.00121698
-0.00121431
-0.00121385
-0.00120032
-0.00117412
-0.00118912
-0.00115868
-0.00103003
-0.0007574
-0.000579385
0.000356478
-0.000495777
-0.000841085
-0.00103243
-0.00115871
-0.00119097
-0.00121027
-0.00120973
-0.00119864
-0.00122803
-0.00120384
-0.00122287
-0.00120761
-0.00120835
-0.00117763
-0.0012019
-0.00121663
-0.00122183
-0.00109569
-0.00103157
-0.000381022
-0.000814875
-0.00105661
-0.00114275
-0.00118753
-0.00121412
-0.00120792
-0.00121679
-0.00120809
-0.00122134
-0.00120851
-0.00122182
-0.00120588
-0.00121508
-0.00119223
-0.00121262
-0.00120531
-0.00120931
-0.00114976
-0.00108109
-0.000819367
-0.00101121
-0.00116242
-0.00119728
-0.00120419
-0.00121924
-0.00121137
-0.00121983
-0.00121132
-0.00121984
-0.00121069
-0.00121622
-0.00120398
-0.00121207
-0.00119021
-0.00121195
-0.00120618
-0.00119914
-0.00118855
-0.00122756
-0.00108151
-0.00112141
-0.00120232
-0.00119602
-0.00120571
-0.00120993
-0.00121221
-0.00121868
-0.00121619
-0.00122191
-0.00121194
-0.00122079
-0.00120308
-0.00121601
-0.00119703
-0.00121238
-0.0012075
-0.00121349
-0.0012011
-0.0011866
-0.00113886
-0.00119375
-0.00119987
-0.00121321
-0.00121051
-0.0012215
-0.00122012
-0.00122694
-0.00122343
-0.00122477
-0.00121774
-0.00121736
-0.00120529
-0.00121003
-0.0011939
-0.00120349
-0.00119002
-0.00120862
-0.00117697
-0.0012121
-0.0011785
-0.00120753
-0.00123381
-0.00123135
-0.00122445
-0.00122559
-0.00122946
-0.00123367
-0.00123175
-0.00123106
-0.00122387
-0.0012234
-0.00120838
-0.00121636
-0.00120158
-0.00121239
-0.00120395
-0.00120931
-0.0011966
-0.00120646
-0.00117287
-0.00125878
-0.0012576
-0.00124828
-0.00123351
-0.00124415
-0.00124988
-0.00125442
-0.00125128
-0.00124226
-0.00123339
-0.00122248
-0.00120985
-0.001209
-0.00119521
-0.00120448
-0.00118009
-0.00120252
-0.00116411
-0.00117977
-0.00116815
-0.00126279
-0.00123185
-0.00124276
-0.00124848
-0.00126259
-0.00127811
-0.00128326
-0.00127301
-0.00126249
-0.00125007
-0.00123072
-0.00121702
-0.00121822
-0.0011999
-0.00121102
-0.00120044
-0.00121145
-0.00117689
-0.00120877
-0.00115005
-0.00125306
-0.00127428
-0.00126343
-0.00128267
-0.00132329
-0.00135452
-0.00135948
-0.00132363
-0.00129276
-0.00126959
-0.00123287
-0.00121084
-0.00120919
-0.0011952
-0.00120491
-0.00118397
-0.00120105
-0.0011458
-0.00115927
-0.00114398
-0.00130525
-0.00130378
-0.00131133
-0.00136791
-0.00145498
-0.00153043
-0.0015265
-0.00145793
-0.00135697
-0.00129155
-0.00124274
-0.00122053
-0.00122556
-0.00121563
-0.00122369
-0.00118611
-0.00120922
-0.00118299
-0.00120052
-0.00115636
-0.0012977
-0.001317
-0.00135349
-0.0014749
-0.0016463
-0.00183237
-0.00184228
-0.00170494
-0.00146259
-0.0013058
-0.00122121
-0.00120712
-0.00120064
-0.00120681
-0.00123982
-0.00115819
-0.00115568
-0.00114469
-0.00114955
-0.00117308
-0.00131224
-0.00137623
-0.00142718
-0.00162945
-0.00183676
-0.0020353
-0.00208014
-0.00185962
-0.00153983
-0.00133685
-0.00125673
-0.00122926
-0.00123523
-0.00126001
-0.0012649
-0.0011836
-0.00123888
-0.00119209
-0.00125309
-0.00118119
-0.00129376
-0.00135818
-0.00143399
-0.00159678
-0.00183288
-0.00198281
-0.00207624
-0.00188378
-0.0015395
-0.00132093
-0.00126584
-0.00126143
-0.00126162
-0.00118159
-0.00120547
-0.0011093
-0.0011134
-0.00109488
-0.00109406
-0.00108913
-0.00115875
-0.00123834
-0.00131709
-0.00149101
-0.00167457
-0.00181398
-0.00191807
-0.00175314
-0.00149209
-0.00132698
-0.00115978
-0.00114326
-0.00119391
-0.00132319
-0.00131308
-0.0011282
-0.00124536
-0.00113316
-0.00122674
-0.00102825
-0.000964779
-0.00109378
-0.00118883
-0.001328
-0.0014781
-0.00157038
-0.00158504
-0.0015398
-0.00142707
-0.00135458
-0.00132979
-0.00143901
-0.00143794
-0.00135337
-0.00116208
-0.000916851
-0.000980365
-0.000928871
-0.0010007
-0.000958337
-0.000705605
-0.000921089
-0.0010109
-0.00114493
-0.00128596
-0.00138002
-0.00136911
-0.00126525
-0.00128803
-0.00136471
-0.00147388
-0.0013513
-0.0012901
-0.00123349
-0.00108505
-0.00121304
-0.00121746
-0.00107111
-0.00125391
-0.000994711
-0.000615415
-0.000861652
-0.000883973
-0.000930037
-0.00105475
-0.00116166
-0.00124678
-0.00130021
-0.00133698
-0.00135639
-0.00129867
-0.00119363
-0.00115657
-0.00110347
-0.0010979
-0.00117769
-0.00116554
-0.00100622
-0.000985402
-0.000745574
-0.000750869
-0.000905366
-0.00076089
-0.000787413
-0.000891251
-0.00105653
-0.00125408
-0.00126739
-0.00125672
-0.00134625
-0.00137763
-0.00132965
-0.00136918
-0.00105878
-0.00114868
-0.00112745
-0.00102876
-0.00129841
-0.000851553
-0.000588662
-0.000825769
-0.000769537
-0.000679141
-0.000882705
-0.00101196
-0.00116901
-0.00128285
-0.00130672
-0.00125655
-0.00121438
-0.00119287
-0.00116593
-0.00111319
-0.00104937
-0.001048
-0.00109753
-0.00115677
-0.000922663
-0.000329958
0.00091047
)
;

boundaryField
{
    movingWall
    {
        type            zeroGradient;
    }
    fixedWalls
    {
        type            zeroGradient;
    }
    frontAndBack
    {
        type            empty;
    }
}


// ************************************************************************* //
