/*--------------------------------*- C++ -*----------------------------------*\
| =========                 |                                                 |
| \\      /  F ield         | OpenFOAM: The Open Source CFD Toolbox           |
|  \\    /   O peration     | Version:  5.x                                   |
|   \\  /    A nd           | Web:      www.OpenFOAM.org                      |
|    \\/     M anipulation  |                                                 |
\*---------------------------------------------------------------------------*/
FoamFile
{
    version     2.0;
    format      ascii;
    class       volScalarField;
    location    "17.1";
    object      p;
}
// * * * * * * * * * * * * * * * * * * * * * * * * * * * * * * * * * * * * * //

dimensions      [0 2 -2 0 0 0 0];

internalField   nonuniform List<scalar> 
400
(
-1.31907e-11
-0.000787364
-0.00133591
-0.00166163
-0.00179933
-0.00186704
-0.00188648
-0.00190868
-0.00191919
-0.00193567
-0.00194597
-0.00195373
-0.00195791
-0.00195291
-0.00191113
-0.00178884
-0.00154012
-0.00117069
-0.000820486
0.000586415
-0.000848257
-0.00136854
-0.00169328
-0.00184431
-0.00188759
-0.00190873
-0.0019127
-0.0019197
-0.00192421
-0.00194258
-0.00195937
-0.0019794
-0.00199687
-0.00197557
-0.00197305
-0.00188424
-0.00183265
-0.00163743
-0.00151653
-0.00051407
-0.00137474
-0.00173735
-0.00186306
-0.00192961
-0.00191888
-0.0019181
-0.0019095
-0.00191326
-0.00192343
-0.00193383
-0.00195039
-0.00195773
-0.00196763
-0.00194888
-0.00195201
-0.001847
-0.00184458
-0.0017078
-0.0016047
-0.00115521
-0.0016802
-0.0019016
-0.00193629
-0.00194771
-0.00193259
-0.00192537
-0.0019236
-0.00192654
-0.00193369
-0.00194337
-0.00195579
-0.00196167
-0.00197354
-0.00194927
-0.00195476
-0.00190962
-0.00190338
-0.00178154
-0.00178489
-0.00156864
-0.00181907
-0.00194752
-0.00193613
-0.0019444
-0.00192587
-0.00192381
-0.00191927
-0.00192181
-0.00192888
-0.00193307
-0.0019437
-0.00194269
-0.00194624
-0.00195181
-0.00197177
-0.00194246
-0.00195038
-0.00186016
-0.00183384
-0.00177143
-0.0018681
-0.00193069
-0.00192727
-0.00192416
-0.00192102
-0.00191939
-0.00192387
-0.00192877
-0.00193799
-0.0019424
-0.00195388
-0.0019587
-0.00195308
-0.00193929
-0.0019768
-0.0019548
-0.00197437
-0.00191984
-0.00192078
-0.00189855
-0.00188815
-0.00191266
-0.00192552
-0.0019196
-0.00191802
-0.00191903
-0.00192243
-0.00192721
-0.00193453
-0.00193206
-0.00193354
-0.0019434
-0.0019391
-0.00196886
-0.00196665
-0.00196818
-0.00198277
-0.00195789
-0.0019405
-0.00196295
-0.0018715
-0.00189107
-0.00188536
-0.00189169
-0.00189917
-0.00190453
-0.00191855
-0.00192918
-0.00193497
-0.00193963
-0.00196922
-0.00197393
-0.001967
-0.00197434
-0.00199761
-0.00198133
-0.00199223
-0.00199641
-0.00198404
-0.0020358
-0.00185794
-0.00186437
-0.00189398
-0.0018878
-0.00190394
-0.00190483
-0.00192909
-0.00194073
-0.0019687
-0.00195994
-0.00198851
-0.00194351
-0.00207752
-0.00204611
-0.00203307
-0.00202401
-0.00209769
-0.00205168
-0.00203655
-0.00206796
-0.00184143
-0.001848
-0.0018527
-0.00186419
-0.00187705
-0.00188704
-0.0019094
-0.00191253
-0.00194684
-0.00199826
-0.00200804
-0.00196406
-0.00207329
-0.00213073
-0.00203374
-0.00200757
-0.00203947
-0.00206147
-0.00208297
-0.00201141
-0.00182446
-0.00181256
-0.00184375
-0.00184861
-0.00186879
-0.00187723
-0.00193304
-0.00195455
-0.00197425
-0.00203774
-0.00209941
-0.0021288
-0.00213849
-0.00203418
-0.00202428
-0.00201371
-0.00203211
-0.00196169
-0.0019606
-0.00185162
-0.0017988
-0.00180618
-0.0018104
-0.00182334
-0.00186549
-0.00187564
-0.0019189
-0.00196369
-0.00197477
-0.00207335
-0.00209835
-0.00217909
-0.00207479
-0.00195073
-0.00197234
-0.00190531
-0.00196545
-0.00183607
-0.00183708
-0.00183348
-0.00177628
-0.00178228
-0.00179882
-0.00180655
-0.00186001
-0.00183599
-0.00188245
-0.00191521
-0.00194929
-0.00206105
-0.00207394
-0.0021494
-0.0020434
-0.00200529
-0.00201934
-0.00197205
-0.00203064
-0.00188759
-0.00194741
-0.00183165
-0.00174668
-0.00174677
-0.00178243
-0.00176682
-0.00184562
-0.00183561
-0.00183753
-0.00189053
-0.0019054
-0.00210053
-0.00214407
-0.00215082
-0.00208864
-0.00201639
-0.00198077
-0.00187862
-0.00196799
-0.00177788
-0.00184665
-0.001693
-0.00170777
-0.00171514
-0.00177335
-0.00176128
-0.00181988
-0.00179508
-0.00181379
-0.00185823
-0.001893
-0.00208694
-0.00213012
-0.00213385
-0.00205444
-0.00199233
-0.00202519
-0.00192169
-0.00197281
-0.00164557
-0.00177902
-0.00166762
-0.00165162
-0.00168941
-0.00172917
-0.00171625
-0.00179576
-0.00177537
-0.00178996
-0.00186899
-0.00181799
-0.00202113
-0.00202772
-0.00198772
-0.00195964
-0.00178736
-0.00189187
-0.00177221
-0.00189503
-0.00173071
-0.00172635
-0.00165048
-0.00154944
-0.00162595
-0.00172249
-0.00174204
-0.00174918
-0.00176741
-0.00177289
-0.00187696
-0.00195291
-0.00200112
-0.00200006
-0.00196206
-0.00185814
-0.00203641
-0.00197297
-0.00197318
-0.00195425
-0.00184748
-0.00189272
-0.00156883
-0.00138165
-0.0015567
-0.00164105
-0.00168302
-0.00173749
-0.00177819
-0.00175343
-0.00191065
-0.00194565
-0.00200627
-0.00198925
-0.00202351
-0.00206201
-0.00200165
-0.00179054
-0.0017447
-0.00184397
-0.00166403
-0.00147501
-0.00132438
-0.00111104
-0.00134165
-0.00153201
-0.00161369
-0.00165055
-0.00164674
-0.0016435
-0.00190851
-0.002061
-0.00217666
-0.00216285
-0.00210635
-0.00217647
-0.00176686
-0.00169326
-0.00175588
-0.00183413
-0.00196894
-0.00186707
-0.000813766
-0.000818586
-0.00111031
-0.00137318
-0.0015726
-0.00168977
-0.00176484
-0.00181393
-0.00189062
-0.00198644
-0.00205229
-0.00205725
-0.00198367
-0.00181228
-0.00169127
-0.00168335
-0.00168127
-0.00170364
-0.00141485
-0.000729384
0.00127682
)
;

boundaryField
{
    movingWall
    {
        type            zeroGradient;
    }
    fixedWalls
    {
        type            zeroGradient;
    }
    frontAndBack
    {
        type            empty;
    }
}


// ************************************************************************* //
