/*--------------------------------*- C++ -*----------------------------------*\
| =========                 |                                                 |
| \\      /  F ield         | OpenFOAM: The Open Source CFD Toolbox           |
|  \\    /   O peration     | Version:  5.x                                   |
|   \\  /    A nd           | Web:      www.OpenFOAM.org                      |
|    \\/     M anipulation  |                                                 |
\*---------------------------------------------------------------------------*/
FoamFile
{
    version     2.0;
    format      ascii;
    class       volVectorField;
    location    "17.1";
    object      U;
}
// * * * * * * * * * * * * * * * * * * * * * * * * * * * * * * * * * * * * * //

dimensions      [0 1 -1 0 0 0 0];

internalField   nonuniform List<vector> 
400
(
(-0.0191001 0.00859091 0)
(-0.0403956 0.00762101 0)
(-0.0501374 0.00259282 0)
(-0.054615 0.00165659 0)
(-0.0570272 -0.000143807 0)
(-0.0584185 0.00047165 0)
(-0.0586789 -0.000707674 0)
(-0.0606186 0.000206547 0)
(-0.0600461 -0.000780426 0)
(-0.0624855 0.000147178 0)
(-0.0616974 -0.000951118 0)
(-0.0640211 -0.000553747 0)
(-0.0626034 -0.0016847 0)
(-0.0653154 -0.00173713 0)
(-0.0623394 -0.00241903 0)
(-0.0635145 -0.00303359 0)
(-0.0567346 -0.00402926 0)
(-0.0536069 -0.00813615 0)
(-0.047705 -0.0122871 0)
(-0.00569795 -0.0215947 0)
(-0.0111944 0.0400281 0)
(-0.0221625 0.0244051 0)
(-0.0241499 0.0110614 0)
(-0.0283562 0.00574883 0)
(-0.0248018 0.00169981 0)
(-0.0298889 0.00190744 0)
(-0.0238334 0.000658936 0)
(-0.0312809 0.00226849 0)
(-0.0222843 0.00119191 0)
(-0.0323269 0.00251225 0)
(-0.0222146 0.00132005 0)
(-0.0329413 0.00201255 0)
(-0.025035 0.00132444 0)
(-0.0316673 0.00085596 0)
(-0.0276152 0.000227628 0)
(-0.0278316 -0.00241117 0)
(-0.0290723 -0.00368573 0)
(-0.022489 -0.0135524 0)
(-0.0351591 -0.0243654 0)
(-0.00229582 -0.0475291 0)
(-0.00610872 0.0461461 0)
(-0.00938436 0.028736 0)
(-0.0101501 0.0126035 0)
(-0.0103887 0.00399426 0)
(-0.0075974 0.000786553 0)
(-0.0116132 0.000457617 0)
(-0.00674472 -0.000431859 0)
(-0.0133172 -3.09789e-05 0)
(-0.00830625 -0.000125249 0)
(-0.014735 0.000139388 0)
(-0.0107367 0.000769651 0)
(-0.0153623 0.00116717 0)
(-0.0115386 -0.000171457 0)
(-0.0129205 -0.00183941 0)
(-0.0130829 -0.00203287 0)
(-0.00744768 -0.00387097 0)
(-0.0156517 -0.00267484 0)
(0.0058696 -0.004287 0)
(-0.0128945 -0.0127343 0)
(0.00309941 -0.054904 0)
(-0.00250756 0.0534011 0)
(-0.00497673 0.0328189 0)
(-0.00215261 0.00988158 0)
(-0.00322589 0.00452046 0)
(-0.00073783 0.00144227 0)
(-0.00438985 0.00158193 0)
(-0.00189242 0.00186052 0)
(-0.00633474 0.00297798 0)
(-0.00358942 0.0029565 0)
(-0.00773698 0.00369303 0)
(-0.00473895 0.00240735 0)
(-0.0065871 0.00124683 0)
(-0.00491744 -6.33108e-05 0)
(-0.00407104 1.88989e-05 0)
(-0.00812792 -0.00296011 0)
(-0.00728287 -0.0045566 0)
(-0.0146095 -0.0160454 0)
(-0.00569766 -0.0200467 0)
(-0.0122243 -0.0240411 0)
(0.00404396 -0.0619559 0)
(-0.000655154 0.0527795 0)
(-5.96251e-05 0.0299184 0)
(6.04247e-05 0.0103305 0)
(0.00096923 0.00250328 0)
(0.00139452 0.00192543 0)
(-0.000824992 0.00172107 0)
(-0.000628294 0.00198206 0)
(-0.00260043 0.00201169 0)
(-0.0021731 0.00194689 0)
(-0.00309896 0.00150962 0)
(-0.00280711 0.000633726 0)
(-0.00286543 0.00101671 0)
(-0.00349504 -0.00129821 0)
(-0.0010737 0.000217928 0)
(-0.00867958 0.0028549 0)
(-0.00143335 0.00134851 0)
(-0.00993861 -0.00124096 0)
(0.00270672 -0.0107993 0)
(-0.00759214 -0.0156667 0)
(0.00595195 -0.0625773 0)
(2.70744e-05 0.0533742 0)
(-0.000556751 0.0325297 0)
(0.00141763 0.00783105 0)
(0.000756093 0.00376294 0)
(0.000110252 0.00268119 0)
(-0.00126306 0.00378506 0)
(-0.00116641 0.00316475 0)
(-0.00223324 0.00385452 0)
(-0.00294991 0.00323779 0)
(-0.00261367 0.00330353 0)
(-0.00256144 0.00210656 0)
(-0.0040784 0.00104804 0)
(-0.00521468 -0.00204118 0)
(0.00174526 0.00486505 0)
(-0.00600524 -0.00139168 0)
(0.00355286 -0.0048653 0)
(-0.00709312 -0.0182199 0)
(-0.00185987 -0.023037 0)
(-0.00900235 -0.0297177 0)
(0.00430164 -0.0672964 0)
(0.0006445 0.052258 0)
(0.00176309 0.0269186 0)
(0.00275343 0.00835435 0)
(0.0014717 0.00304001 0)
(0.00128543 0.00386581 0)
(0.00106169 0.00249024 0)
(-0.000538031 0.00345571 0)
(-0.00102799 0.00401715 0)
(-0.00207847 0.00317725 0)
(-0.00137843 0.00135767 0)
(-0.00332297 0.0029481 0)
(-0.000723011 0.00461628 0)
(-0.00239281 -0.00613469 0)
(0.00484659 -0.000540204 0)
(-0.0079441 0.00209107 0)
(0.00542225 0.00155882 0)
(-0.00618039 0.0056592 0)
(0.00315179 -0.0100131 0)
(-0.0055359 -0.0180408 0)
(0.00538787 -0.0650981 0)
(-0.00018525 0.0511447 0)
(0.00150587 0.0317357 0)
(0.00157249 0.00973163 0)
(0.00255244 0.00587623 0)
(0.000275333 0.00365063 0)
(0.00123058 0.00620942 0)
(-0.000937256 0.00538489 0)
(-0.00149243 0.00503932 0)
(-0.000945758 0.00387012 0)
(0.000156881 0.00407305 0)
(-0.00875598 0.000288851 0)
(-0.00885252 -0.000337224 0)
(-0.00127866 -0.00819571 0)
(-6.76173e-06 0.0120737 0)
(-0.00632259 -0.00225406 0)
(-0.00348381 -0.00666988 0)
(-0.00544072 -0.0150801 0)
(-0.00291955 -0.0237633 0)
(-0.00549768 -0.0339315 0)
(0.0033405 -0.0702373 0)
(0.00157832 0.0495347 0)
(0.00141857 0.0246784 0)
(0.00234112 0.00526343 0)
(0.000578988 0.00344932 0)
(0.000766804 0.00449016 0)
(0.000984826 0.00281905 0)
(0.00282845 0.00557502 0)
(0.00361583 0.0034638 0)
(0.00401692 0.000944373 0)
(0.0023168 0.0090998 0)
(-0.00289707 0.0129645 0)
(-0.00416753 -0.00134061 0)
(-0.000628547 -0.0175229 0)
(0.00415215 0.00271269 0)
(-0.00728672 0.00631642 0)
(0.00365539 -0.00115255 0)
(-0.00608641 0.00376504 0)
(0.000917483 -0.0104999 0)
(-0.00269516 -0.0241215 0)
(0.00370946 -0.0672356 0)
(-0.000687536 0.0486442 0)
(0.00310658 0.030427 0)
(0.00156111 0.0129197 0)
(0.00398167 0.00787664 0)
(0.00295175 0.00454793 0)
(0.00181435 0.00442638 0)
(0.00291937 0.00436501 0)
(0.00335275 0.00421878 0)
(-0.00622468 0.00712066 0)
(-0.0108691 0.0096522 0)
(-0.0109013 0.00805187 0)
(-0.00519138 -0.00424843 0)
(-0.00914734 -0.0119661 0)
(-0.00354246 0.0175005 0)
(-0.00842835 -0.000811552 0)
(0.00474437 -0.00753896 0)
(-0.00192694 -0.00928573 0)
(0.00875253 -0.0283637 0)
(-0.00393759 -0.0401189 0)
(0.00239144 -0.0701873 0)
(0.00148077 0.0470554 0)
(0.000795164 0.024132 0)
(0.00166584 0.00255834 0)
(0.00321687 0.00142023 0)
(0.00165062 0.00612962 0)
(0.000722785 0.00208107 0)
(0.0024111 0.00352977 0)
(0.00164562 0.0105539 0)
(-0.00226511 0.0130559 0)
(-0.00518933 0.0143888 0)
(-0.00848005 0.00704421 0)
(-0.00560171 -0.00728543 0)
(-0.0132384 -0.0222484 0)
(0.000307682 0.00684782 0)
(-0.00135011 -0.00371485 0)
(0.0126541 -0.00956334 0)
(0.00414445 -0.00135499 0)
(0.0118149 -0.00777145 0)
(0.0008784 -0.0130288 0)
(0.0042336 -0.0632169 0)
(-0.00168868 0.0465088 0)
(0.00377563 0.0274198 0)
(0.000286427 0.0123726 0)
(-0.000173084 0.00790685 0)
(-0.00679299 0.0080356 0)
(-0.00393898 0.00270999 0)
(-0.00781891 0.00493056 0)
(-0.00321689 0.00963949 0)
(-0.00200721 0.0148871 0)
(-0.00230508 0.0162187 0)
(0.000203211 0.0112654 0)
(0.000618315 0.00075736 0)
(-0.00644218 -0.012149 0)
(-0.00715135 0.0034437 0)
(0.00161137 -0.0110911 0)
(0.0018577 -0.0118339 0)
(-0.00292573 -0.00471414 0)
(0.00708263 -0.0253234 0)
(-0.00205349 -0.0298007 0)
(0.00415068 -0.0688227 0)
(0.00156455 0.0443843 0)
(0.00112624 0.0243118 0)
(0.00267191 0.0053869 0)
(-0.00348728 0.00723426 0)
(-0.00200273 0.0105303 0)
(-0.00143456 0.00283168 0)
(-0.00705149 0.00265358 0)
(-0.00764721 0.00656195 0)
(-0.00626984 0.0105824 0)
(-0.00347102 0.0141311 0)
(0.00131459 0.00331967 0)
(-0.000661763 0.000338765 0)
(0.00468099 -0.0151037 0)
(-0.00950581 -0.0040477 0)
(0.0119769 -0.0139089 0)
(-0.00801592 -0.00961714 0)
(-0.00414633 -0.00741146 0)
(0.00246488 -0.014544 0)
(-0.00665608 -0.014977 0)
(0.00408196 -0.0651399 0)
(-0.00209773 0.0445608 0)
(0.00349316 0.0252875 0)
(0.000700446 0.017799 0)
(0.00438167 0.0130501 0)
(0.00087477 0.00729353 0)
(0.00450111 0.0055954 0)
(0.00432089 0.0124229 0)
(0.00293344 0.00765005 0)
(0.00211642 0.00945536 0)
(0.0012404 0.0078045 0)
(0.00683723 0.00587333 0)
(0.00409115 -0.00202963 0)
(0.0102993 -0.00580332 0)
(-0.00303253 -0.00431403 0)
(0.0152441 -0.00879044 0)
(0.00208836 0.00522013 0)
(0.0112831 -0.0108013 0)
(0.012783 -0.0203558 0)
(0.00106337 -0.0250372 0)
(0.0057934 -0.0652471 0)
(0.0017679 0.0419763 0)
(0.00118109 0.0207512 0)
(0.00056133 0.00475855 0)
(0.00248957 0.00423124 0)
(0.0100308 0.0121911 0)
(0.00686181 -3.54741e-05 0)
(0.0121976 0.00276973 0)
(0.0115384 0.0113917 0)
(0.0203318 0.00955182 0)
(0.0176944 0.0124392 0)
(0.0212176 3.90944e-06 0)
(0.0227838 -0.00216493 0)
(0.0182346 -0.00663793 0)
(0.0242078 -0.0109699 0)
(0.0211541 -0.0201159 0)
(0.0211399 -0.0106399 0)
(0.0208949 -0.0165706 0)
(0.00912995 -0.00823905 0)
(-0.00679879 -0.00618313 0)
(0.00695702 -0.0650326 0)
(-0.00161904 0.0417805 0)
(0.00509313 0.0251065 0)
(0.00112305 0.018915 0)
(0.00610056 0.00354283 0)
(-0.00658702 0.00403895 0)
(0.0180788 0.00148055 0)
(-0.00566467 0.00922305 0)
(0.021901 -0.000549338 0)
(0.0192303 0.00143095 0)
(0.0280897 0.0118146 0)
(0.0299289 -0.00153133 0)
(0.0250701 0.00458089 0)
(0.0277087 -0.00732478 0)
(0.0161839 -0.00734721 0)
(0.0124281 0.00273216 0)
(0.00767003 0.00211876 0)
(-0.0160913 0.0104139 0)
(0.00416997 0.000168967 0)
(-0.00751691 -0.0205782 0)
(0.00827417 -0.0652269 0)
(0.00205892 0.0383579 0)
(0.00309806 0.0198029 0)
(0.000437854 0.00276798 0)
(0.00894474 0.00941342 0)
(0.00180994 0.00214918 0)
(0.010067 -0.00156054 0)
(0.0060483 -0.00314421 0)
(0.0222706 -0.00849036 0)
(0.0151398 -0.00462281 0)
(0.0246703 0.00563177 0)
(0.0265559 0.000515505 0)
(0.0154165 -0.00270028 0)
(0.027434 0.00709369 0)
(-0.0107253 -0.00608788 0)
(0.00502814 -0.00979839 0)
(-0.00894695 0.0104034 0)
(0.00570067 -0.0112009 0)
(0.019176 -0.0199898 0)
(-0.00519042 -0.0148024 0)
(0.00901358 -0.0644841 0)
(0.000964663 0.0360441 0)
(0.0121338 0.023911 0)
(0.0115977 0.0159334 0)
(0.00879563 0.00346435 0)
(0.015622 0.00164678 0)
(0.0138451 -0.00212775 0)
(0.0207571 -0.00564044 0)
(0.0133248 -0.0100128 0)
(0.0205362 0.000613456 0)
(0.00841251 0.00188072 0)
(0.0316004 0.00810905 0)
(0.00977557 0.00680906 0)
(0.0358638 0.0115363 0)
(0.0225133 0.0212192 0)
(0.0298732 0.00196687 0)
(0.00918404 0.00610774 0)
(0.0276019 -0.0135449 0)
(0.00233136 0.0111458 0)
(-0.0014168 -0.000202446 0)
(0.0144375 -0.0625532 0)
(0.00367441 0.0264885 0)
(0.0123428 0.0147004 0)
(0.0163621 0.00481415 0)
(0.0216314 0.00364928 0)
(0.0116028 -0.00183033 0)
(0.0142222 -0.00282335 0)
(0.00163709 -0.00487567 0)
(-0.00724662 -0.00350919 0)
(-0.0155438 -0.00394222 0)
(-0.0165167 -0.00379335 0)
(-0.0179814 -0.00544777 0)
(-0.0134277 -0.00670579 0)
(-0.021312 -0.0042328 0)
(0.00108632 0.00462012 0)
(-0.00573909 -0.00144905 0)
(-0.000221881 0.00692675 0)
(0.00471647 -0.00268313 0)
(-0.0151061 0.00184256 0)
(0.0233891 -0.0357173 0)
(0.0132137 -0.0586226 0)
(0.00883339 0.0195347 0)
(0.0319936 0.0118832 0)
(0.0349164 0.0106446 0)
(0.046855 0.00642662 0)
(0.0471838 0.00919111 0)
(0.053644 0.00638158 0)
(0.0533308 0.010766 0)
(0.0582144 0.00928302 0)
(0.0579047 0.00921508 0)
(0.0629392 0.00779523 0)
(0.0614061 0.00686118 0)
(0.0659401 0.0061147 0)
(0.062518 0.00493775 0)
(0.0652809 -0.00062279 0)
(0.0625745 0.00301861 0)
(0.0679313 -0.00125503 0)
(0.0644363 0.00155734 0)
(0.0689717 -0.00346939 0)
(0.0557032 -0.00691288 0)
(0.037477 -0.0107292 0)
)
;

boundaryField
{
    movingWall
    {
        type            fixedValue;
        value           uniform (1 0 0);
    }
    fixedWalls
    {
        type            noSlip;
    }
    frontAndBack
    {
        type            empty;
    }
}


// ************************************************************************* //
