/*--------------------------------*- C++ -*----------------------------------*\
| =========                 |                                                 |
| \\      /  F ield         | OpenFOAM: The Open Source CFD Toolbox           |
|  \\    /   O peration     | Version:  5.x                                   |
|   \\  /    A nd           | Web:      www.OpenFOAM.org                      |
|    \\/     M anipulation  |                                                 |
\*---------------------------------------------------------------------------*/
FoamFile
{
    version     2.0;
    format      ascii;
    class       volScalarField;
    location    "5";
    object      p;
}
// * * * * * * * * * * * * * * * * * * * * * * * * * * * * * * * * * * * * * //

dimensions      [0 2 -2 0 0 0 0];

internalField   nonuniform List<scalar> 
400
(
-3.05016e-10
6.41356e-07
2.0602e-06
4.33318e-06
7.66842e-06
1.23693e-05
1.89173e-05
2.8074e-05
4.10447e-05
5.97412e-05
8.6982e-05
0.000125962
0.000174079
0.000197702
6.18587e-05
-0.00027464
-0.000523675
-0.000236474
0.000537649
0.00156438
-9.46991e-07
-3.79397e-07
8.75213e-07
2.86951e-06
5.75679e-06
9.7398e-06
1.50958e-05
2.21541e-05
3.12294e-05
4.23415e-05
5.43274e-05
6.26844e-05
5.39888e-05
-9.5118e-06
-0.000226057
-0.000612186
-0.000990993
-0.0008655
-0.000238613
0.000575189
-2.91114e-06
-2.48402e-06
-1.53721e-06
-5.74382e-08
2.01967e-06
4.74705e-06
8.14426e-06
1.21113e-05
1.6237e-05
1.9394e-05
1.88792e-05
8.57615e-06
-2.48715e-05
-0.000107995
-0.000287701
-0.000569846
-0.000910774
-0.00103221
-0.000737908
-0.0001331
-5.66732e-06
-5.42467e-06
-4.87592e-06
-4.04717e-06
-2.96135e-06
-1.70154e-06
-4.6425e-07
3.30068e-07
-1.67537e-07
-3.60461e-06
-1.30517e-05
-3.41211e-05
-7.73174e-05
-0.000156021
-0.000301735
-0.000505094
-0.000764338
-0.000861757
-0.000757062
-0.00037088
-8.98006e-06
-8.94331e-06
-8.82622e-06
-8.68742e-06
-8.61145e-06
-8.77339e-06
-9.49412e-06
-1.13432e-05
-1.52948e-05
-2.30054e-05
-3.71966e-05
-6.15852e-05
-0.000105535
-0.000167532
-0.000277566
-0.000405551
-0.00055158
-0.000624508
-0.000588124
-0.000444773
-1.25743e-05
-1.27478e-05
-1.30539e-05
-1.35687e-05
-1.44004e-05
-1.57588e-05
-1.80003e-05
-2.17025e-05
-2.77538e-05
-3.74704e-05
-5.34136e-05
-7.52684e-05
-0.00011688
-0.000161142
-0.000238262
-0.00031508
-0.000408861
-0.000462436
-0.000522252
-0.000418346
-1.61782e-05
-1.65684e-05
-1.72716e-05
-1.83731e-05
-1.99533e-05
-2.22203e-05
-2.54912e-05
-3.02781e-05
-3.73389e-05
-4.70657e-05
-6.36511e-05
-7.89816e-05
-0.000116216
-0.000146323
-0.000200158
-0.000237938
-0.000292054
-0.000285836
-0.000272671
-0.000244807
-1.95283e-05
-2.0149e-05
-2.12188e-05
-2.28227e-05
-2.49863e-05
-2.78689e-05
-3.17377e-05
-3.69143e-05
-4.4473e-05
-5.19721e-05
-6.96866e-05
-7.78186e-05
-0.000110664
-0.00012635
-0.000166368
-0.000176792
-0.000212969
-0.000186121
-0.000181944
-0.000173155
-2.23741e-05
-2.33312e-05
-2.47736e-05
-2.69692e-05
-2.95606e-05
-3.28879e-05
-3.69923e-05
-4.17067e-05
-5.00713e-05
-5.43551e-05
-7.22783e-05
-7.57032e-05
-0.000102059
-0.000107478
-0.000140424
-0.000133477
-0.00016827
-0.0001355
-0.000186007
-0.000145861
-2.44806e-05
-2.58781e-05
-2.77438e-05
-3.029e-05
-3.32239e-05
-3.65701e-05
-4.10124e-05
-4.43997e-05
-5.37809e-05
-5.48077e-05
-7.1034e-05
-7.12655e-05
-9.37356e-05
-8.82732e-05
-0.000119839
-9.48898e-05
-0.000133574
-7.5285e-05
-0.000122837
-6.49184e-05
-2.53581e-05
-2.76182e-05
-3.03992e-05
-3.39957e-05
-3.73761e-05
-4.12654e-05
-4.55215e-05
-4.7906e-05
-5.69482e-05
-5.62665e-05
-6.96547e-05
-6.67326e-05
-8.73187e-05
-7.54232e-05
-0.000104675
-7.23607e-05
-0.000107765
-3.3517e-05
-6.58448e-05
-2.17141e-06
-2.53984e-05
-3.01256e-05
-3.26025e-05
-3.62982e-05
-3.96069e-05
-4.23436e-05
-4.69826e-05
-4.80409e-05
-5.64679e-05
-5.47515e-05
-6.68306e-05
-5.94732e-05
-8.01755e-05
-5.85685e-05
-9.23498e-05
-4.40966e-05
-9.36879e-05
-7.65623e-06
-6.82821e-05
1.04608e-05
-2.04329e-05
-2.67572e-05
-3.39004e-05
-4.04765e-05
-4.49879e-05
-4.94121e-05
-5.28179e-05
-5.4136e-05
-5.99785e-05
-5.76244e-05
-6.79484e-05
-5.86318e-05
-7.75169e-05
-5.70334e-05
-8.64342e-05
-4.79517e-05
-8.9705e-05
-1.61496e-05
-0.000110008
4.34863e-06
-1.9867e-05
-3.79552e-05
-3.87737e-05
-4.47131e-05
-4.6799e-05
-4.82978e-05
-5.14676e-05
-5.15902e-05
-5.67334e-05
-5.33962e-05
-6.2614e-05
-5.07622e-05
-6.8565e-05
-4.21399e-05
-7.25204e-05
-2.57665e-05
-7.57994e-05
2.11794e-06
-8.53183e-05
1.63234e-06
-9.84387e-07
-2.52424e-05
-3.8223e-05
-5.25757e-05
-5.64667e-05
-6.20459e-05
-6.15532e-05
-6.24083e-05
-6.38048e-05
-6.09022e-05
-6.63693e-05
-5.65501e-05
-6.96378e-05
-5.11022e-05
-7.56575e-05
-4.45353e-05
-8.3328e-05
-2.7698e-05
-9.72574e-05
-1.35298e-05
-5.48326e-05
-9.04719e-05
-4.68267e-05
-7.0941e-05
-6.12831e-05
-5.47439e-05
-5.48984e-05
-5.46951e-05
-5.67816e-05
-5.42509e-05
-5.8029e-05
-4.78812e-05
-5.8443e-05
-3.80782e-05
-5.39268e-05
-2.1839e-05
-3.48968e-05
-3.0169e-05
-5.32522e-05
-1.15156e-05
-1.3228e-06
-0.000121548
-9.1761e-05
-9.13083e-05
-7.23257e-05
-7.57614e-05
-6.49304e-05
-6.94531e-05
-6.79657e-05
-6.71051e-05
-6.45761e-05
-6.12856e-05
-5.79224e-05
-6.05164e-05
-5.41624e-05
-5.38014e-05
-0.000124287
-4.2327e-05
-0.000138845
3.43708e-05
-5.24347e-05
-0.00020438
-8.80873e-05
-6.50726e-05
-7.032e-05
-6.31564e-05
-6.5318e-05
-6.45904e-05
-6.31174e-05
-6.05372e-05
-5.58709e-05
-4.76287e-05
-4.92031e-05
-3.58466e-05
-6.31887e-05
-7.7813e-05
-1.80036e-06
2.32741e-05
8.97055e-05
0.00021562
4.52351e-05
-7.39026e-05
-6.23383e-05
-6.47281e-05
-6.26488e-05
-5.62791e-05
-5.94331e-05
-6.3522e-05
-7.36257e-05
-7.63337e-05
-6.86815e-05
-6.83753e-05
-6.81544e-05
-4.99188e-05
-6.63861e-05
-0.000103912
-2.86209e-05
-3.92764e-05
-2.22129e-05
0.00050499
-0.000102157
-7.34063e-05
-1.62907e-05
-8.88511e-05
-4.52867e-05
-4.61234e-05
-3.88569e-05
-3.94472e-05
-4.26592e-05
-4.69467e-05
-4.7441e-05
-3.73042e-05
-3.92155e-05
-2.93716e-05
-1.27134e-05
1.80316e-05
-1.89686e-05
0.000199157
0.000618793
0.0017944
)
;

boundaryField
{
    movingWall
    {
        type            zeroGradient;
    }
    fixedWalls
    {
        type            zeroGradient;
    }
    frontAndBack
    {
        type            empty;
    }
}


// ************************************************************************* //
