/*--------------------------------*- C++ -*----------------------------------*\
| =========                 |                                                 |
| \\      /  F ield         | OpenFOAM: The Open Source CFD Toolbox           |
|  \\    /   O peration     | Version:  5.x                                   |
|   \\  /    A nd           | Web:      www.OpenFOAM.org                      |
|    \\/     M anipulation  |                                                 |
\*---------------------------------------------------------------------------*/
FoamFile
{
    version     2.0;
    format      ascii;
    class       surfaceScalarField;
    location    "5";
    object      phi;
}
// * * * * * * * * * * * * * * * * * * * * * * * * * * * * * * * * * * * * * //

dimensions      [0 3 -1 0 0 0 0];

internalField   nonuniform List<scalar> 
760
(
-1.89838e-08
1.89838e-08
-3.97181e-08
2.07343e-08
-6.18111e-08
2.20929e-08
-8.61207e-08
2.43096e-08
-1.13705e-07
2.75846e-08
-1.46009e-07
3.23038e-08
-1.85157e-07
3.9148e-08
-2.34445e-07
4.92876e-08
-2.99303e-07
6.48586e-08
-3.89307e-07
9.00034e-08
-5.22288e-07
1.32982e-07
-7.32741e-07
2.10453e-07
-1.08316e-06
3.50423e-07
-1.6438e-06
5.60636e-07
-2.35048e-06
7.06679e-07
-2.89562e-06
5.4514e-07
-2.97832e-06
8.27005e-08
-2.51457e-06
-4.63754e-07
-1.36189e-06
-1.15268e-06
-1.36189e-06
-1.991e-08
3.88938e-08
-4.15883e-08
4.24127e-08
-6.45528e-08
4.50574e-08
-8.95849e-08
4.93417e-08
-1.17611e-07
5.5611e-08
-1.4982e-07
6.45122e-08
-1.87785e-07
7.71135e-08
-2.33662e-07
9.51646e-08
-2.90392e-07
1.21588e-07
-3.61733e-07
1.61345e-07
-4.51631e-07
2.22879e-07
-5.61517e-07
3.20339e-07
-6.85006e-07
4.73913e-07
-8.14899e-07
6.90529e-07
-9.90913e-07
8.82693e-07
-1.28577e-06
8.39999e-07
-1.62672e-06
4.23645e-07
-1.65464e-06
-4.35834e-07
-1.13312e-06
-1.6742e-06
-2.495e-06
-1.87225e-08
5.76163e-08
-3.91173e-08
6.28075e-08
-6.05875e-08
6.65275e-08
-8.37367e-08
7.2491e-08
-1.0922e-07
8.10939e-08
-1.37787e-07
9.30797e-08
-1.70305e-07
1.09631e-07
-2.07719e-07
1.32579e-07
-2.5085e-07
1.64719e-07
-2.99771e-07
2.10266e-07
-3.52268e-07
2.75376e-07
-4.00606e-07
3.68677e-07
-4.26799e-07
5.00106e-07
-4.06077e-07
6.69807e-07
-3.6385e-07
8.40466e-07
-3.61706e-07
8.37854e-07
-4.42887e-07
5.04826e-07
-4.93244e-07
-3.85477e-07
-4.51329e-07
-1.71611e-06
-2.94633e-06
-1.68842e-08
7.45005e-08
-3.53186e-08
8.12419e-08
-5.45714e-08
8.57804e-08
-7.50372e-08
9.29568e-08
-9.70673e-08
1.03124e-07
-1.20965e-07
1.16977e-07
-1.46917e-07
1.35584e-07
-1.74836e-07
1.60498e-07
-2.04012e-07
1.93896e-07
-2.32472e-07
2.38725e-07
-2.55709e-07
2.98613e-07
-2.64469e-07
3.77438e-07
-2.43992e-07
4.79629e-07
-1.66804e-07
5.92619e-07
-3.83498e-08
7.12011e-07
1.02645e-07
6.9686e-07
1.56317e-07
4.51154e-07
4.52706e-08
-2.74431e-07
1.57762e-08
-1.68662e-06
-2.93055e-06
-1.46128e-08
8.91133e-08
-3.06721e-08
9.73011e-08
-4.73181e-08
1.02426e-07
-6.47434e-08
1.10382e-07
-8.30116e-08
1.21392e-07
-1.02035e-07
1.36e-07
-1.21472e-07
1.55021e-07
-1.40566e-07
1.79591e-07
-1.57807e-07
2.11137e-07
-1.70482e-07
2.514e-07
-1.74145e-07
3.02276e-07
-1.59389e-07
3.62681e-07
-1.20688e-07
4.40928e-07
-3.14674e-08
5.03399e-07
9.03054e-08
5.90238e-07
2.31631e-07
5.55535e-07
2.85303e-07
3.97482e-07
1.94451e-07
-1.83579e-07
-7.83244e-08
-1.41385e-06
-3.00888e-06
-1.20213e-08
1.01135e-07
-2.54456e-08
1.10725e-07
-3.93113e-08
1.16292e-07
-5.36235e-08
1.24694e-07
-6.82184e-08
1.35987e-07
-8.27129e-08
1.50495e-07
-9.64549e-08
1.68763e-07
-1.08386e-07
1.91522e-07
-1.16821e-07
2.19572e-07
-1.18786e-07
2.53365e-07
-1.12194e-07
2.95685e-07
-8.39163e-08
3.34404e-07
-4.38071e-08
4.00818e-07
3.47206e-08
4.24871e-07
1.36771e-07
4.88188e-07
2.60805e-07
4.31501e-07
3.38394e-07
3.19893e-07
3.10295e-07
-1.5548e-07
1.83802e-07
-1.28735e-06
-2.82508e-06
-9.12869e-09
1.10263e-07
-1.9789e-08
1.21386e-07
-3.08392e-08
1.27342e-07
-4.22351e-08
1.3609e-07
-5.35235e-08
1.47275e-07
-6.41638e-08
1.61135e-07
-7.32773e-08
1.77877e-07
-7.96899e-08
1.97935e-07
-8.20803e-08
2.21962e-07
-7.56077e-08
2.46892e-07
-6.48335e-08
2.84911e-07
-3.37103e-08
3.0328e-07
8.235e-09
3.58873e-07
7.45279e-08
3.58578e-07
1.51449e-07
4.11266e-07
2.48187e-07
3.34763e-07
3.05055e-07
2.63025e-07
2.8272e-07
-1.33145e-07
1.65267e-07
-1.1699e-06
-2.65981e-06
-5.98948e-09
1.16253e-07
-1.38489e-08
1.29245e-07
-2.22024e-08
1.35696e-07
-3.09821e-08
1.4487e-07
-3.95395e-08
1.55833e-07
-4.71439e-08
1.68739e-07
-5.29499e-08
1.83683e-07
-5.53665e-08
2.00351e-07
-5.50876e-08
2.21683e-07
-4.51013e-08
2.36906e-07
-3.29401e-08
2.72749e-07
-6.2226e-09
2.76563e-07
2.95255e-08
3.23125e-07
8.29708e-08
3.05133e-07
1.39257e-07
3.5498e-07
2.07042e-07
2.66978e-07
2.32679e-07
2.37388e-07
2.03223e-07
-1.03689e-07
-9.85506e-09
-9.56821e-07
-2.66966e-06
-2.05538e-09
1.18308e-07
-7.03723e-09
1.34227e-07
-1.2676e-08
1.41335e-07
-1.99144e-08
1.52108e-07
-2.64109e-08
1.62329e-07
-3.22507e-08
1.74579e-07
-3.59353e-08
1.87367e-07
-3.52186e-08
1.99635e-07
-3.2866e-08
2.19331e-07
-2.18809e-08
2.25921e-07
-6.08778e-09
2.56956e-07
1.81799e-08
2.52295e-07
4.9048e-08
2.92257e-07
9.39568e-08
2.60224e-07
1.33633e-07
3.15304e-07
1.85459e-07
2.15152e-07
1.98908e-07
2.23939e-07
1.87418e-07
-9.21995e-08
5.01058e-08
-8.19508e-07
-2.61956e-06
2.01633e-09
1.16292e-07
-4.87027e-10
1.3673e-07
-4.57897e-09
1.45426e-07
-9.62933e-09
1.57159e-07
-1.46996e-08
1.674e-07
-1.82907e-08
1.7817e-07
-2.11263e-08
1.90203e-07
-1.9971e-08
1.98479e-07
-1.65525e-08
2.15912e-07
-8.40189e-09
2.1777e-07
6.01122e-09
2.42543e-07
2.35089e-08
2.34798e-07
4.75815e-08
2.68184e-07
7.70903e-08
2.30715e-07
1.08142e-07
2.84252e-07
1.46265e-07
1.77029e-07
1.61859e-07
2.08344e-07
1.66228e-07
-9.65683e-08
1.00317e-07
-7.53597e-07
-2.51924e-06
1.13397e-08
1.04952e-07
1.30208e-08
1.35049e-07
1.13158e-08
1.47131e-07
3.84513e-09
1.64629e-07
-2.87314e-09
1.74118e-07
-9.32771e-09
1.84625e-07
-1.21594e-08
1.93035e-07
-1.13973e-08
1.97717e-07
-5.26509e-09
2.0978e-07
2.44947e-09
2.10056e-07
1.86474e-08
2.26345e-07
3.75799e-08
2.15865e-07
6.09657e-08
2.44799e-07
9.02271e-08
2.01454e-07
1.14172e-07
2.60307e-07
1.36918e-07
1.54282e-07
1.40792e-07
2.04471e-07
1.12804e-07
-6.85805e-08
3.07842e-08
-6.71577e-07
-2.48846e-06
1.8449e-08
8.65031e-08
1.41703e-08
1.39328e-07
1.0481e-08
1.50821e-07
7.61194e-09
1.67498e-07
4.4306e-09
1.77299e-07
2.19711e-09
1.86858e-07
2.1644e-09
1.93067e-07
3.26348e-10
1.99555e-07
5.73285e-09
2.04373e-07
9.17421e-09
2.06614e-07
2.01403e-08
2.15379e-07
2.71468e-08
2.08859e-07
4.44923e-08
2.27453e-07
4.8537e-08
1.97409e-07
7.1356e-08
2.37488e-07
7.21343e-08
1.53504e-07
8.35743e-08
1.93031e-07
6.82935e-08
-5.32997e-08
-2.36192e-08
-5.79665e-07
-2.51208e-06
4.98055e-08
3.66976e-08
6.6257e-08
1.22876e-07
6.09573e-08
1.5612e-07
3.68504e-08
1.91605e-07
1.86408e-08
1.95509e-07
1.64075e-09
2.03859e-07
-4.53223e-09
1.9924e-07
-6.20675e-09
2.0123e-07
1.41703e-09
1.9675e-07
7.73159e-09
2.003e-07
2.47083e-08
1.98402e-07
3.79849e-08
1.95582e-07
6.26149e-08
2.02823e-07
8.04734e-08
1.79551e-07
1.06541e-07
2.11421e-07
1.09154e-07
1.50891e-07
1.0949e-07
1.92695e-07
2.73599e-08
2.88306e-08
-1.86542e-08
-5.33651e-07
-2.53073e-06
7.53651e-08
-3.86675e-08
2.71163e-08
1.71125e-07
1.47339e-08
1.68503e-07
2.18715e-08
1.84468e-07
2.11519e-08
1.96228e-07
2.17719e-08
2.03239e-07
1.96284e-08
2.01384e-07
1.68846e-08
2.03974e-07
1.92937e-08
1.94341e-07
1.98337e-08
1.9976e-07
2.75561e-08
1.9068e-07
2.50312e-08
1.98107e-07
3.70194e-08
1.90835e-07
1.53558e-08
2.01214e-07
3.31953e-08
1.93581e-07
-1.82253e-08
2.02312e-07
4.71942e-08
1.27276e-07
3.56854e-08
4.03394e-08
3.02437e-08
-5.28209e-07
-2.50049e-06
1.94667e-07
-2.33334e-07
1.77497e-07
1.88295e-07
1.28633e-07
2.17367e-07
3.3252e-08
2.79848e-07
-1.58736e-08
2.45354e-07
-4.04663e-08
2.27831e-07
-4.17024e-08
2.0262e-07
-3.57752e-08
1.98046e-07
-2.34821e-08
1.82047e-07
-1.33318e-08
1.8961e-07
8.44938e-09
1.68899e-07
1.58201e-08
1.90736e-07
4.94642e-08
1.57191e-07
4.91927e-08
2.01486e-07
1.12911e-07
1.29863e-07
1.09712e-07
2.05511e-07
1.17153e-07
1.19835e-07
-1.33967e-08
1.70889e-07
-2.95215e-08
-5.12084e-07
-2.53001e-06
2.84127e-07
-5.17461e-07
1.95151e-07
2.77271e-07
2.28954e-07
1.83564e-07
2.21735e-07
2.87067e-07
1.76608e-07
2.90481e-07
1.29828e-07
2.74611e-07
1.04112e-07
2.28336e-07
8.45661e-08
2.17593e-07
7.67243e-08
1.89889e-07
7.26637e-08
1.9367e-07
7.71843e-08
1.64378e-07
7.31015e-08
1.94819e-07
8.44495e-08
1.45843e-07
5.7892e-08
2.28043e-07
1.6318e-08
1.71437e-07
-5.75516e-08
2.79381e-07
6.38725e-08
-1.58944e-09
2.20844e-08
2.12677e-07
2.735e-08
-5.1735e-07
-2.50266e-06
-1.30273e-08
-5.04434e-07
-3.20117e-07
5.8436e-07
-4.01033e-07
2.6448e-07
-3.67782e-07
2.53817e-07
-3.60849e-07
2.83548e-07
-3.051e-07
2.18862e-07
-2.70989e-07
1.94225e-07
-2.38096e-07
1.847e-07
-2.0604e-07
1.57833e-07
-1.76965e-07
1.64595e-07
-1.47923e-07
1.35337e-07
-1.2187e-07
1.68765e-07
-9.96534e-08
1.23626e-07
-1.08834e-07
2.37224e-07
-8.51505e-09
7.11175e-08
-9.29569e-08
3.63823e-07
1.10081e-07
-2.04627e-07
1.53561e-07
1.69196e-07
3.92342e-08
-4.03022e-07
-2.46343e-06
-3.02577e-08
-4.74176e-07
3.96502e-07
1.57601e-07
3.44644e-07
3.16338e-07
4.11074e-07
1.87387e-07
4.78562e-07
2.1606e-07
5.29013e-07
1.68411e-07
5.80369e-07
1.42868e-07
5.80827e-07
1.84242e-07
5.97721e-07
1.40938e-07
5.63742e-07
1.98574e-07
5.58206e-07
1.40873e-07
5.20549e-07
2.06422e-07
5.06e-07
1.38176e-07
4.8232e-07
2.60904e-07
5.53662e-07
-2.24169e-10
4.20533e-07
4.96951e-07
2.77439e-07
-6.15327e-08
1.82604e-07
2.64031e-07
2.60982e-07
-4.814e-07
-2.20244e-06
-8.33032e-07
3.58856e-07
-9.46677e-07
2.71246e-07
-8.80664e-07
2.50324e-07
-8.66852e-07
1.73575e-07
-8.31194e-07
1.80402e-07
-7.97047e-07
1.34265e-07
-7.75987e-07
1.21809e-07
-7.39476e-07
1.47731e-07
-7.16746e-07
1.18208e-07
-6.47824e-07
1.29652e-07
-6.0045e-07
9.34992e-08
-5.06536e-07
1.12508e-07
-4.50613e-07
8.22525e-08
-2.93794e-07
1.04085e-07
-3.43023e-07
4.90043e-08
-2.58412e-08
1.7977e-07
-2.37221e-08
-6.36518e-08
2.46406e-07
-6.09781e-09
6.66275e-07
-9.01268e-07
-1.53617e-06
3.58856e-07
6.30102e-07
8.80426e-07
1.054e-06
1.2344e-06
1.36867e-06
1.49048e-06
1.63821e-06
1.75641e-06
1.88607e-06
1.97957e-06
2.09207e-06
2.17433e-06
2.27841e-06
2.32742e-06
2.50719e-06
2.44353e-06
2.43744e-06
1.53617e-06
)
;

boundaryField
{
    movingWall
    {
        type            calculated;
        value           uniform 0;
    }
    fixedWalls
    {
        type            calculated;
        value           uniform 0;
    }
    frontAndBack
    {
        type            empty;
        value           nonuniform 0();
    }
}


// ************************************************************************* //
