/*--------------------------------*- C++ -*----------------------------------*\
| =========                 |                                                 |
| \\      /  F ield         | OpenFOAM: The Open Source CFD Toolbox           |
|  \\    /   O peration     | Version:  5.x                                   |
|   \\  /    A nd           | Web:      www.OpenFOAM.org                      |
|    \\/     M anipulation  |                                                 |
\*---------------------------------------------------------------------------*/
FoamFile
{
    version     2.0;
    format      ascii;
    class       volVectorField;
    location    "5";
    object      U;
}
// * * * * * * * * * * * * * * * * * * * * * * * * * * * * * * * * * * * * * //

dimensions      [0 1 -1 0 0 0 0];

internalField   nonuniform List<vector> 
400
(
(-0.000184537 0.00018705 0)
(-0.00058085 0.00020447 0)
(-0.00101098 0.000218184 0)
(-0.00147127 0.000240542 0)
(-0.00198687 0.000273545 0)
(-0.00258043 0.00032099 0)
(-0.00328679 0.000389566 0)
(-0.00415752 0.000491844 0)
(-0.00527436 0.000652242 0)
(-0.00677414 0.000920061 0)
(-0.00889982 0.00140297 0)
(-0.0120879 0.00234474 0)
(-0.017067 0.00418871 0)
(-0.0251503 0.00685711 0)
(-0.0391209 0.00715522 0)
(-0.0566378 0.000939731 0)
(-0.0640805 -0.00763784 0)
(-0.0578527 -0.0142227 0)
(-0.0433345 -0.0204427 0)
(-0.00504132 -0.0193631 0)
(-0.000193589 0.000577638 0)
(-0.000608703 0.000630356 0)
(-0.00105725 0.000670795 0)
(-0.0015336 0.000736578 0)
(-0.00206115 0.000833289 0)
(-0.00265879 0.000971519 0)
(-0.00335376 0.00116923 0)
(-0.00418171 0.00145749 0)
(-0.00519098 0.00189158 0)
(-0.00644332 0.00257281 0)
(-0.00800702 0.00369276 0)
(-0.00992955 0.0056126 0)
(-0.0121416 0.00890856 0)
(-0.0143384 0.0138844 0)
(-0.0172504 0.018573 0)
(-0.0233142 0.0180418 0)
(-0.0316006 0.00952289 0)
(-0.0355962 -0.00743231 0)
(-0.0282608 -0.0305559 0)
(-0.012223 -0.0410412 0)
(-0.000181771 0.000968288 0)
(-0.000572378 0.00105553 0)
(-0.00099334 0.00111964 0)
(-0.00143638 0.00122304 0)
(-0.00192026 0.0013734 0)
(-0.00245706 0.0015851 0)
(-0.00306282 0.00188146 0)
(-0.00375454 0.00229968 0)
(-0.00454844 0.00289905 0)
(-0.00545236 0.00377442 0)
(-0.00644754 0.00507467 0)
(-0.00744802 0.0070258 0)
(-0.00821869 0.00992648 0)
(-0.00828246 0.013895 0)
(-0.00742651 0.0178264 0)
(-0.00703441 0.0177282 0)
(-0.00887175 0.00949045 0)
(-0.0102997 -0.00905966 0)
(-0.00886526 -0.0375836 0)
(-0.00625364 -0.0613318 0)
(-0.000163494 0.00132483 0)
(-0.000516326 0.00144429 0)
(-0.000895729 0.0015274 0)
(-0.00129031 0.00165984 0)
(-0.00171343 0.00184932 0)
(-0.00216986 0.0021106 0)
(-0.00266453 0.00246677 0)
(-0.00319809 0.00295259 0)
(-0.00376296 0.00361907 0)
(-0.00433436 0.00453923 0)
(-0.00485249 0.00581207 0)
(-0.00519231 0.00756033 0)
(-0.00513855 0.00992337 0)
(-0.00423532 0.0127905 0)
(-0.00227263 0.015748 0)
(0.000894993 0.0159244 0)
(0.00262155 0.010625 0)
(0.00323758 -0.00510643 0)
(-0.00169307 -0.0304285 0)
(0.00282204 -0.0533307 0)
(-0.000140829 0.0016407 0)
(-0.000447437 0.00178996 0)
(-0.000777222 0.00188699 0)
(-0.00111576 0.00203915 0)
(-0.00147132 0.0022525 0)
(-0.00184225 0.00253959 0)
(-0.00222468 0.00291966 0)
(-0.00260801 0.00341986 0)
(-0.0029707 0.00407661 0)
(-0.0032736 0.00493616 0)
(-0.00344921 0.00605392 0)
(-0.00336023 0.00745456 0)
(-0.00292593 0.00925566 0)
(-0.00161746 0.0110239 0)
(0.00019623 0.0130568 0)
(0.00347509 0.0126136 0)
(0.00517907 0.00858743 0)
(0.00571706 -0.00499355 0)
(0.00220895 -0.0334408 0)
(-0.00473228 -0.0603139 0)
(-0.000114817 0.00190779 0)
(-0.00036943 0.0020856 0)
(-0.000645294 0.00219272 0)
(-0.000925274 0.00235727 0)
(-0.00121361 0.00258148 0)
(-0.00150365 0.00287479 0)
(-0.00178565 0.00325052 0)
(-0.00204316 0.00372787 0)
(-0.00224951 0.0043294 0)
(-0.00236071 0.00507707 0)
(-0.00234073 0.00601786 0)
(-0.00198594 0.00702994 0)
(-0.00153626 0.00847433 0)
(-2.65238e-05 0.00937304 0)
(0.00129659 0.0108622 0)
(0.00438732 0.00994 0)
(0.00552963 0.00723803 0)
(0.00822516 -0.00291382 0)
(0.00321001 -0.0258926 0)
(0.00506872 -0.0605892 0)
(-8.52694e-05 0.00212035 0)
(-0.000283675 0.00232591 0)
(-0.000504316 0.002441 0)
(-0.000727426 0.00261132 0)
(-0.000954402 0.00283726 0)
(-0.00117407 0.00312174 0)
(-0.0013729 0.00347448 0)
(-0.00153112 0.0039049 0)
(-0.00162515 0.00442915 0)
(-0.00158983 0.00501932 0)
(-0.00151151 0.00581802 0)
(-0.000905226 0.00639251 0)
(-0.000600052 0.0075782 0)
(0.000986057 0.00778171 0)
(0.00175926 0.00888714 0)
(0.00460115 0.00750102 0)
(0.00473754 0.0056911 0)
(0.00804841 -0.0028621 0)
(0.00274731 -0.0240536 0)
(0.00437139 -0.0507728 0)
(-5.26061e-05 0.00227188 0)
(-0.000191535 0.00251475 0)
(-0.000358863 0.00263855 0)
(-0.000529334 0.00282446 0)
(-0.000703334 0.00304457 0)
(-0.000866765 0.00331662 0)
(-0.00100285 0.00363181 0)
(-0.0010888 0.00400176 0)
(-0.0011363 0.00445563 0)
(-0.00096659 0.00486688 0)
(-0.000970753 0.00560609 0)
(-0.000192507 0.00585243 0)
(-0.000136648 0.00689125 0)
(0.0014654 0.00672611 0)
(0.0015647 0.0077759 0)
(0.00438674 0.00614276 0)
(0.00329261 0.00504305 0)
(0.0066325 -0.00236133 0)
(0.00118295 -0.021616 0)
(-0.00154813 -0.0539814 0)
(-6.01068e-06 0.00235883 0)
(-8.08215e-05 0.00263511 0)
(-0.000194434 0.00276984 0)
(-0.000322094 0.00294152 0)
(-0.000463894 0.00316117 0)
(-0.000588568 0.00339853 0)
(-0.000690459 0.00369002 0)
(-0.00070957 0.00398004 0)
(-0.00076688 0.00439753 0)
(-0.000439333 0.00461389 0)
(-0.000549783 0.00527607 0)
(0.000379488 0.00523697 0)
(0.000229369 0.00607809 0)
(0.00194377 0.00547794 0)
(0.00146624 0.00649356 0)
(0.00433766 0.00441251 0)
(0.00245148 0.00431617 0)
(0.00625865 -0.00213427 0)
(0.000472571 -0.0179486 0)
(0.00185224 -0.053836 0)
(4.13746e-05 0.00234684 0)
(3.36779e-05 0.00272675 0)
(-5.11575e-05 0.00289274 0)
(-0.000138047 0.0031963 0)
(-0.000242258 0.00338526 0)
(-0.00033488 0.00366057 0)
(-0.000417056 0.00386975 0)
(-0.000375327 0.00408422 0)
(-0.000499885 0.00442681 0)
(-7.11072e-05 0.00451044 0)
(-0.0003405 0.00507717 0)
(0.000644962 0.00496378 0)
(0.000146582 0.00573276 0)
(0.00200087 0.00511488 0)
(0.000707718 0.00622297 0)
(0.00412376 0.00440357 0)
(0.00104448 0.00454727 0)
(0.00624374 -0.00151714 0)
(-0.000447495 -0.0153475 0)
(0.00503423 -0.0512333 0)
(0.000173225 0.00229523 0)
(0.000261265 0.00276418 0)
(0.000269265 0.00289789 0)
(0.000168702 0.00301438 0)
(-8.78996e-06 0.00322903 0)
(-0.000111912 0.00334411 0)
(-0.000278632 0.00363599 0)
(-0.000161324 0.00373642 0)
(-0.000357808 0.00411036 0)
(0.000199914 0.00410812 0)
(-0.000137378 0.00455153 0)
(0.00100294 0.00431255 0)
(0.000297361 0.00491778 0)
(0.00243859 0.00391281 0)
(0.000742044 0.00507344 0)
(0.00436735 0.00239318 0)
(0.000409103 0.00369974 0)
(0.00601238 -0.00235745 0)
(-0.00219234 -0.014293 0)
(0.00376227 -0.0492388 0)
(0.000300402 0.0018181 0)
(0.000388511 0.00251667 0)
(0.000208322 0.00301265 0)
(0.000193579 0.00367628 0)
(0.000106791 0.0038633 0)
(8.41505e-05 0.00422655 0)
(-1.02398e-05 0.00423878 0)
(0.000117228 0.00436612 0)
(-0.000112927 0.00444189 0)
(0.000393265 0.00445114 0)
(-0.000102864 0.00466613 0)
(0.0010453 0.00451123 0)
(-0.000153636 0.00502535 0)
(0.0022271 0.00441971 0)
(-0.000651284 0.00547005 0)
(0.00401357 0.00412907 0)
(-0.00171321 0.00453945 0)
(0.00574857 -0.000211789 0)
(-0.00364721 -0.0120813 0)
(0.00301439 -0.0497835 0)
(0.00068494 0.00176359 0)
(0.00123569 0.0032866 0)
(0.00138763 0.00311128 0)
(0.00101017 0.00293479 0)
(0.00049912 0.00307709 0)
(0.000229723 0.00302055 0)
(-0.000168481 0.00328346 0)
(1.29697e-05 0.0033741 0)
(-0.000302248 0.00353286 0)
(0.000382282 0.00360503 0)
(-0.000142961 0.00374295 0)
(0.0012845 0.0036178 0)
(8.49171e-06 0.00386185 0)
(0.00283031 0.00314635 0)
(-4.77868e-05 0.00378808 0)
(0.00487206 0.00158723 0)
(-0.00116133 0.00294664 0)
(0.00632712 -0.00217773 0)
(-0.00568898 -0.0121018 0)
(0.00530264 -0.050914 0)
(0.00167361 -0.000425802 0)
(0.00111565 0.00132615 0)
(7.70544e-05 0.00297487 0)
(0.000462637 0.00485184 0)
(0.00044724 0.00495218 0)
(0.000427169 0.00543463 0)
(0.000400842 0.00495334 0)
(0.000438581 0.0049686 0)
(0.000170725 0.00459209 0)
(0.00069 0.00467463 0)
(-1.15508e-05 0.00443683 0)
(0.00128059 0.0044831 0)
(-0.000472011 0.00450179 0)
(0.00222718 0.00439892 0)
(-0.0018174 0.00497884 0)
(0.00348774 0.00489588 0)
(-0.00449854 0.00507564 0)
(0.00691541 0.00353449 0)
(-0.00598388 -0.00841654 0)
(0.00759115 -0.0501086 0)
(0.00352362 -0.000864909 0)
(0.00390018 0.00609998 0)
(0.00340608 0.0039865 0)
(0.0015708 0.00260607 0)
(-0.00015189 0.00267535 0)
(-0.00053004 0.00231981 0)
(-0.0010149 0.00276956 0)
(-0.000679192 0.0028352 0)
(-0.000807365 0.00287839 0)
(-5.57846e-05 0.00299981 0)
(-0.000555993 0.0029078 0)
(0.000975278 0.00311393 0)
(-0.000475662 0.00284198 0)
(0.00272817 0.00322235 0)
(-0.00107607 0.00236859 0)
(0.00612914 0.00262109 0)
(-0.00234594 -0.000430477 0)
(0.00775668 -0.00216258 0)
(-0.00856212 -0.0136805 0)
(0.00774765 -0.0511162 0)
(0.00560132 -0.00935609 0)
(0.00495376 0.000802724 0)
(0.0035979 0.00500999 0)
(0.00490396 0.00863249 0)
(0.00433775 0.00738252 0)
(0.00284005 0.00726058 0)
(0.00223301 0.00570164 0)
(0.00198105 0.00548564 0)
(0.00130447 0.00474268 0)
(0.00188803 0.00493577 0)
(0.000851217 0.00414925 0)
(0.00246456 0.00488344 0)
(0.000185338 0.0037178 0)
(0.00353004 0.00531538 0)
(-0.00152769 0.00317514 0)
(0.00235703 0.00622616 0)
(-0.00493089 0.00590587 0)
(0.00773621 0.00936006 0)
(-0.00705607 -0.00538994 0)
(0.00839135 -0.0507095 0)
(-0.000686112 -0.00988571 0)
(-8.56825e-05 0.0109463 0)
(-0.0116459 0.00178913 0)
(-0.00504219 0.00232077 0)
(-0.00912894 0.00388787 0)
(-0.00578894 0.00314996 0)
(-0.00601666 0.00307754 0)
(-0.00514445 0.00279129 0)
(-0.00420792 0.00249303 0)
(-0.00410102 0.00243018 0)
(-0.00302416 0.0021108 0)
(-0.00283217 0.00247512 0)
(-0.00201318 0.00187123 0)
(-0.0021066 0.00319564 0)
(-0.00219243 0.00346791 0)
(0.00194836 0.00436094 0)
(-0.00630289 -0.00614424 0)
(0.01156 -0.00146045 0)
(-0.00658391 -0.0174517 0)
(0.00873855 -0.0516403 0)
(-0.0125438 -0.0119013 0)
(0.0108306 0.0106841 0)
(0.00672667 0.00886051 0)
(0.00635954 0.00842659 0)
(0.00953698 0.00765997 0)
(0.0100175 0.0060034 0)
(0.0109042 0.00485074 0)
(0.012176 0.00490521 0)
(0.0112266 0.00414194 0)
(0.0125071 0.00451862 0)
(0.0101647 0.00361579 0)
(0.0124382 0.00472905 0)
(0.00790376 0.00337788 0)
(0.0130714 0.00692719 0)
(0.00548578 -0.000774426 0)
(0.0158246 0.0105249 0)
(0.002058 -0.000836225 0)
(0.00831942 0.0090583 0)
(-0.00114625 0.00362534 0)
(0.0125674 -0.0468168 0)
(-0.0217955 -0.00513112 0)
(-0.0135853 -0.0033436 0)
(-0.0225901 0.0039256 0)
(-0.0132162 -0.000762249 0)
(-0.0215547 0.00105441 0)
(-0.01122 0.00065064 0)
(-0.0210615 0.000701483 0)
(-0.0102661 0.00212466 0)
(-0.0191883 0.00108944 0)
(-0.00964024 0.00291397 0)
(-0.0157984 0.00162865 0)
(-0.00862681 0.00293361 0)
(-0.0119317 0.00169042 0)
(-0.0054285 0.00289244 0)
(-0.00624688 0.000739946 0)
(-0.00842541 0.00812706 0)
(0.00771213 -0.00210179 0)
(-0.0088879 3.46204e-06 0)
(0.0171914 -0.0261258 0)
(0.0131805 -0.047518 0)
(3.46186e-05 0.0178082 0)
(0.014047 0.0133652 0)
(0.0125936 0.00666882 0)
(0.0205326 0.0072823 0)
(0.0234589 0.00645604 0)
(0.0248867 0.00490479 0)
(0.0298849 0.00446537 0)
(0.0296939 0.0041685 0)
(0.0356626 0.00405277 0)
(0.0347096 0.00270434 0)
(0.0406939 0.00243036 0)
(0.0385289 0.00199902 0)
(0.0443626 0.00195553 0)
(0.0431784 0.00161005 0)
(0.0477703 0.00154859 0)
(0.0471573 4.84936e-05 0)
(0.0490907 -0.000195619 0)
(0.0505402 2.22429e-05 0)
(0.0417502 -0.00491625 0)
(0.0273885 -0.00555633 0)
)
;

boundaryField
{
    movingWall
    {
        type            fixedValue;
        value           uniform (1 0 0);
    }
    fixedWalls
    {
        type            noSlip;
    }
    frontAndBack
    {
        type            empty;
    }
}


// ************************************************************************* //
