/*--------------------------------*- C++ -*----------------------------------*\
| =========                 |                                                 |
| \\      /  F ield         | OpenFOAM: The Open Source CFD Toolbox           |
|  \\    /   O peration     | Version:  5.x                                   |
|   \\  /    A nd           | Web:      www.OpenFOAM.org                      |
|    \\/     M anipulation  |                                                 |
\*---------------------------------------------------------------------------*/
FoamFile
{
    version     2.0;
    format      ascii;
    class       surfaceScalarField;
    location    "8.3";
    object      phi;
}
// * * * * * * * * * * * * * * * * * * * * * * * * * * * * * * * * * * * * * //

dimensions      [0 3 -1 0 0 0 0];

internalField   nonuniform List<scalar> 
760
(
-9.44735e-07
9.44734e-07
-1.83083e-06
8.86095e-07
-2.32226e-06
4.91431e-07
-2.71923e-06
3.96968e-07
-2.69267e-06
-2.65619e-08
-2.59993e-06
-9.27327e-08
-2.53395e-06
-6.59846e-08
-2.17715e-06
-3.56796e-07
-2.06518e-06
-1.11973e-07
-2.20095e-06
1.35772e-07
-2.25166e-06
5.07054e-08
-2.23107e-06
-2.0593e-08
-2.27709e-06
4.60282e-08
-2.3021e-06
2.50041e-08
-2.32902e-06
2.69235e-08
-2.26799e-06
-6.1032e-08
-2.19594e-06
-7.2047e-08
-1.87672e-06
-3.19227e-07
-1.2607e-06
-6.16016e-07
-1.2607e-06
-7.79389e-07
1.72412e-06
-1.55361e-06
1.66032e-06
-2.02564e-06
9.63461e-07
-2.01324e-06
3.84559e-07
-1.94332e-06
-9.64731e-08
-1.69231e-06
-3.43751e-07
-1.36179e-06
-3.96496e-07
-1.27481e-06
-4.43785e-07
-1.12989e-06
-2.56886e-07
-9.07555e-07
-8.65647e-08
-8.37e-07
-1.98493e-08
-8.57162e-07
-4.31158e-10
-8.9266e-07
8.15261e-08
-8.93742e-07
2.60859e-08
-9.61679e-07
9.48614e-08
-9.64453e-07
-5.82583e-08
-1.00848e-06
-2.80237e-08
-1.01197e-06
-3.15733e-07
-8.63018e-07
-7.64968e-07
-2.12372e-06
-5.85715e-07
2.30984e-06
-1.02859e-06
2.10319e-06
-1.25848e-06
1.19335e-06
-1.25914e-06
3.85221e-07
-1.12703e-06
-2.28582e-07
-9.38854e-07
-5.31928e-07
-7.51237e-07
-5.84112e-07
-6.55563e-07
-5.3946e-07
-5.28101e-07
-3.84348e-07
-3.89683e-07
-2.24983e-07
-2.96509e-07
-1.13024e-07
-2.20068e-07
-7.68718e-08
-1.5722e-07
1.86773e-08
-1.24549e-07
-6.58488e-09
-8.97291e-08
6.00417e-08
-7.09526e-08
-7.70349e-08
-5.6186e-08
-4.27902e-08
-1.11431e-07
-2.60487e-07
-2.38565e-07
-6.37834e-07
-2.36228e-06
-3.02376e-07
2.61221e-06
-4.17019e-07
2.21783e-06
-4.27569e-07
1.2039e-06
-3.45398e-07
3.03049e-07
-2.56912e-07
-3.17068e-07
-1.88571e-07
-6.00269e-07
-1.3934e-07
-6.33343e-07
-1.34993e-07
-5.43807e-07
-1.21485e-07
-3.97855e-07
-8.76885e-08
-2.58779e-07
-5.93632e-08
-1.41349e-07
-4.63609e-08
-8.98741e-08
-3.43447e-08
6.66119e-09
-2.52652e-08
-1.56645e-08
-2.60976e-08
6.08742e-08
-5.37957e-08
-4.93368e-08
-1.01393e-07
4.80719e-09
-1.71589e-07
-1.90292e-07
-1.50491e-07
-6.58932e-07
-2.51277e-06
-2.73583e-08
2.63957e-06
1.43398e-07
2.04708e-06
2.88425e-07
1.05888e-06
3.73362e-07
2.18112e-07
3.66782e-07
-3.10488e-07
2.86408e-07
-5.19894e-07
1.71108e-07
-5.18043e-07
5.80858e-08
-4.30785e-07
-1.53602e-08
-3.24409e-07
-4.98672e-08
-2.24272e-07
-5.27692e-08
-1.38447e-07
-4.40633e-08
-9.858e-08
-1.04457e-08
-2.69564e-08
1.59702e-08
-4.20803e-08
4.3004e-08
3.38403e-08
4.53291e-08
-5.1662e-08
1.75238e-08
3.26126e-08
-1.38373e-08
-1.58931e-07
-3.45913e-08
-6.38178e-07
-2.54737e-06
2.85267e-07
2.35431e-06
6.38121e-07
1.69422e-06
8.28126e-07
8.68871e-07
8.39281e-07
2.06957e-07
7.08193e-07
-1.794e-07
5.21964e-07
-3.33665e-07
3.50825e-07
-3.46904e-07
2.26817e-07
-3.06777e-07
1.40668e-07
-2.3826e-07
9.46078e-08
-1.78212e-07
6.56753e-08
-1.09514e-07
5.00877e-08
-8.29925e-08
4.00308e-08
-1.68995e-08
3.30809e-08
-3.51305e-08
3.12139e-08
3.57074e-08
1.36908e-08
-3.41389e-08
1.35959e-08
3.27075e-08
-8.51534e-09
-1.3682e-07
-5.62219e-09
-6.41071e-07
-2.55299e-06
5.064e-07
1.84791e-06
8.88284e-07
1.31234e-06
1.02829e-06
7.28865e-07
9.65122e-07
2.70125e-07
7.98258e-07
-1.25351e-08
6.06494e-07
-1.41902e-07
4.39489e-07
-1.79899e-07
3.11731e-07
-1.79019e-07
2.16393e-07
-1.42923e-07
1.58172e-07
-1.19991e-07
1.16389e-07
-6.7732e-08
9.55995e-08
-6.22027e-08
7.95603e-08
-8.60211e-10
7.32661e-08
-2.88363e-08
6.53772e-08
4.35963e-08
4.99008e-08
-1.86625e-08
2.96405e-08
5.29679e-08
7.47135e-09
-1.1465e-07
8.44457e-10
-6.34444e-07
-2.55214e-06
5.4811e-07
1.2998e-06
8.61126e-07
9.99325e-07
9.41397e-07
6.48594e-07
8.64354e-07
3.47167e-07
7.08679e-07
1.4314e-07
5.53209e-07
1.35684e-08
4.16661e-07
-4.33517e-08
3.10352e-07
-7.27101e-08
2.25626e-07
-5.81968e-08
1.67559e-07
-6.19238e-08
1.22119e-07
-2.22912e-08
9.35299e-08
-3.36139e-08
7.29048e-08
1.97649e-08
5.97551e-08
-1.56866e-08
5.01271e-08
5.32243e-08
4.24009e-08
-1.09363e-08
3.5406e-08
5.99627e-08
3.08967e-08
-1.10141e-07
2.17188e-08
-6.25266e-07
-2.53042e-06
4.22958e-07
8.76837e-07
6.66208e-07
7.56074e-07
7.55377e-07
5.59425e-07
7.32851e-07
3.69693e-07
6.52056e-07
2.23935e-07
5.45371e-07
1.20253e-07
4.36373e-07
6.56465e-08
3.42373e-07
2.12895e-08
2.6456e-07
1.96166e-08
2.09791e-07
-7.15492e-09
1.67189e-07
2.03112e-08
1.40921e-07
-7.34662e-09
1.20007e-07
4.06792e-08
9.95067e-08
4.81377e-09
8.1657e-08
7.1074e-08
5.45971e-08
1.61237e-08
3.39308e-08
8.0629e-08
-5.28812e-09
-7.09222e-08
-2.32797e-08
-6.07275e-07
-2.5537e-06
3.35051e-07
5.41787e-07
5.08528e-07
5.82597e-07
5.61925e-07
5.06029e-07
5.38709e-07
3.92909e-07
4.70598e-07
2.92046e-07
4.04123e-07
1.86729e-07
3.39255e-07
1.30514e-07
2.83915e-07
7.66296e-08
2.29166e-07
7.43656e-08
1.82172e-07
3.98388e-08
1.43325e-07
5.91581e-08
1.0596e-07
3.00183e-08
8.69085e-08
5.97309e-08
5.9663e-08
3.20593e-08
6.31817e-08
6.75552e-08
7.31711e-08
6.13424e-09
5.94569e-08
9.43432e-08
5.23253e-08
-6.37906e-08
3.48865e-08
-5.89836e-07
-2.51882e-06
2.54784e-07
2.87003e-07
4.04959e-07
4.32421e-07
5.03148e-07
4.07839e-07
5.23558e-07
3.72499e-07
4.9614e-07
3.19464e-07
4.24259e-07
2.5861e-07
3.4876e-07
2.06014e-07
2.76451e-07
1.48939e-07
2.28033e-07
1.22784e-07
1.85287e-07
8.25844e-08
1.65948e-07
7.84969e-08
1.43259e-07
5.27074e-08
1.38625e-07
6.43652e-08
1.27713e-07
4.29714e-08
1.02724e-07
9.25444e-08
5.58845e-08
5.29736e-08
5.60801e-08
9.41477e-08
5.92565e-09
-1.36361e-08
-2.39999e-08
-5.5991e-07
-2.54282e-06
3.89337e-07
-1.02335e-07
3.91128e-07
4.30631e-07
3.75527e-07
4.2344e-07
3.77373e-07
3.70653e-07
3.79454e-07
3.17384e-07
3.73166e-07
2.64898e-07
3.31803e-07
2.47376e-07
2.83997e-07
1.96745e-07
2.26949e-07
1.79831e-07
1.81435e-07
1.28098e-07
1.34744e-07
1.25188e-07
9.54836e-08
9.19674e-08
5.99083e-08
9.99406e-08
-6.77279e-09
1.09652e-07
3.35921e-08
5.21795e-08
-8.60188e-09
9.51676e-08
2.54705e-08
6.00753e-08
5.53284e-08
-4.3494e-08
1.99275e-08
-5.24509e-07
-2.52289e-06
3.82714e-07
-4.85049e-07
4.33422e-07
3.79923e-07
4.20592e-07
4.3627e-07
2.77914e-07
5.13331e-07
1.60623e-07
4.34675e-07
9.95066e-08
3.26014e-07
8.69081e-08
2.59975e-07
7.73571e-08
2.06296e-07
9.63595e-08
1.60829e-07
8.20951e-08
1.42363e-07
1.10776e-07
9.65078e-08
6.42288e-08
1.38514e-07
1.32184e-07
3.1985e-08
1.16319e-07
1.25517e-07
1.12576e-07
5.59225e-08
9.31374e-08
1.14607e-07
1.01263e-07
5.19493e-08
7.58151e-08
-1.80457e-08
-2.80719e-08
-4.20622e-07
-2.55096e-06
1.22942e-07
-6.0799e-07
2.12349e-07
2.90516e-07
3.51787e-07
2.96832e-07
5.06813e-07
3.58304e-07
5.80314e-07
3.61174e-07
5.44652e-07
3.61676e-07
4.94279e-07
3.10348e-07
4.10447e-07
2.90129e-07
3.40327e-07
2.30948e-07
2.67665e-07
2.15025e-07
2.21127e-07
1.43046e-07
1.71084e-07
1.88558e-07
7.81162e-08
1.24952e-07
3.72255e-08
1.66408e-07
-1.20812e-07
2.1396e-07
-3.20676e-07
3.14471e-07
-1.02473e-07
-1.66254e-07
1.39228e-08
-1.34441e-07
3.02268e-08
-4.36926e-07
-2.52074e-06
1.22095e-07
-7.30085e-07
1.38807e-07
2.73804e-07
-3.74257e-08
4.73065e-07
-5.91177e-08
3.79996e-07
-8.9933e-08
3.91989e-07
-4.95253e-08
3.21269e-07
-9.05695e-08
3.51392e-07
-7.66203e-08
2.76179e-07
-1.02974e-07
2.57302e-07
-9.32183e-08
2.05269e-07
-1.23104e-07
1.72933e-07
-1.52996e-07
2.1845e-07
-1.23091e-07
9.50471e-08
-2.38851e-07
2.82168e-07
2.06863e-08
-4.55772e-08
1.22101e-07
2.13056e-07
7.61088e-09
-5.17635e-08
-1.40526e-07
1.36956e-08
-8.78105e-08
-4.89642e-07
-2.60855e-06
7.55386e-08
-8.05624e-07
5.73517e-08
2.91991e-07
7.61543e-08
4.54262e-07
2.28789e-07
2.27361e-07
2.35794e-07
3.84984e-07
2.87604e-07
2.69459e-07
3.64233e-07
2.74764e-07
3.92026e-07
2.48386e-07
4.5709e-07
1.92238e-07
4.42014e-07
2.20344e-07
4.80287e-07
1.3466e-07
4.0274e-07
2.95997e-07
4.77921e-07
1.98661e-08
3.62871e-07
3.97218e-07
2.50724e-07
6.65696e-08
2.44974e-07
2.18806e-07
1.23744e-07
6.94662e-08
4.06389e-08
9.68009e-08
6.75998e-08
-5.16603e-07
-2.54095e-06
-3.45176e-07
-4.60448e-07
-5.93381e-07
5.40196e-07
-3.88519e-07
2.494e-07
-3.80326e-07
2.19168e-07
-3.31185e-07
3.35843e-07
-3.02362e-07
2.40636e-07
-2.5299e-07
2.25391e-07
-2.42456e-07
2.37852e-07
-2.43034e-07
1.92816e-07
-2.11339e-07
1.8865e-07
-2.3023e-07
1.53551e-07
-1.28797e-07
1.94563e-07
-2.13244e-07
1.04313e-07
-1.21959e-07
3.05933e-07
-1.12453e-07
5.70637e-08
-2.52548e-07
3.58901e-07
1.66179e-07
-3.4926e-07
1.82866e-07
8.01132e-08
3.12187e-08
-3.64955e-07
-2.50973e-06
-8.48085e-08
-3.75639e-07
2.8337e-07
1.72017e-07
2.75124e-07
2.57646e-07
2.68693e-07
2.25599e-07
3.35478e-07
2.69059e-07
3.65586e-07
2.10528e-07
4.16875e-07
1.74102e-07
4.76681e-07
1.78046e-07
4.83481e-07
1.86015e-07
5.29069e-07
1.43062e-07
4.89257e-07
1.93363e-07
5.40016e-07
1.43804e-07
5.52379e-07
9.195e-08
4.9779e-07
3.60522e-07
6.31578e-07
-7.67241e-08
5.45063e-07
4.45416e-07
4.62062e-07
-2.66259e-07
2.30084e-07
3.12091e-07
2.44583e-07
-3.79454e-07
-2.26514e-06
-7.61405e-07
3.85766e-07
-8.68177e-07
2.78789e-07
-8.63453e-07
2.52922e-07
-7.92641e-07
1.54786e-07
-7.0246e-07
1.78878e-07
-6.40045e-07
1.48113e-07
-5.99903e-07
1.3396e-07
-5.61469e-07
1.39612e-07
-5.02548e-07
1.27094e-07
-4.67554e-07
1.08068e-07
-3.82726e-07
1.08534e-07
-3.24051e-07
8.5129e-08
-3.08361e-07
7.62597e-08
-1.0995e-07
1.62112e-07
-2.86317e-07
9.9643e-08
9.34464e-09
1.49754e-07
-1.99285e-07
-5.76296e-08
1.3465e-07
-2.18437e-08
7.25654e-07
-9.70458e-07
-1.53949e-06
3.85766e-07
6.64555e-07
9.17478e-07
1.07226e-06
1.25114e-06
1.39925e-06
1.53321e-06
1.67283e-06
1.79992e-06
1.90799e-06
2.01652e-06
2.10165e-06
2.17791e-06
2.34002e-06
2.43967e-06
2.58942e-06
2.53179e-06
2.50995e-06
1.53949e-06
)
;

boundaryField
{
    movingWall
    {
        type            calculated;
        value           uniform 0;
    }
    fixedWalls
    {
        type            calculated;
        value           uniform 0;
    }
    frontAndBack
    {
        type            empty;
        value           nonuniform 0();
    }
}


// ************************************************************************* //
