/*--------------------------------*- C++ -*----------------------------------*\
| =========                 |                                                 |
| \\      /  F ield         | OpenFOAM: The Open Source CFD Toolbox           |
|  \\    /   O peration     | Version:  5.x                                   |
|   \\  /    A nd           | Web:      www.OpenFOAM.org                      |
|    \\/     M anipulation  |                                                 |
\*---------------------------------------------------------------------------*/
FoamFile
{
    version     2.0;
    format      ascii;
    class       volVectorField;
    location    "8.3";
    object      U;
}
// * * * * * * * * * * * * * * * * * * * * * * * * * * * * * * * * * * * * * //

dimensions      [0 1 -1 0 0 0 0];

internalField   nonuniform List<vector> 
400
(
(-0.00621811 0.0114415 0)
(-0.0330949 0.00763807 0)
(-0.0441516 0.00334541 0)
(-0.0504993 0.00815564 0)
(-0.0570502 -0.00148489 0)
(-0.0478616 0.000258877 0)
(-0.0548662 0.00179128 0)
(-0.0469901 -0.0104376 0)
(-0.0379908 -0.00276444 0)
(-0.0439495 0.00437287 0)
(-0.0457451 -0.000996586 0)
(-0.0446327 -0.00388791 0)
(-0.0449894 -0.002143 0)
(-0.0460199 -0.00134107 0)
(-0.0477301 -0.00191381 0)
(-0.046373 -0.0028391 0)
(-0.0455191 -0.00324168 0)
(-0.0406006 -0.00611565 0)
(-0.0393119 -0.00982234 0)
(-0.00490637 -0.0173878 0)
(-0.00723353 0.0261273 0)
(-0.0260028 0.0260103 0)
(-0.0396466 0.0149673 0)
(-0.0408785 0.0066423 0)
(-0.0391839 0.000149517 0)
(-0.035581 -0.00432721 0)
(-0.0310701 -0.00473755 0)
(-0.0248808 -0.00469274 0)
(-0.0239281 -0.00160394 0)
(-0.0207068 0.00138022 0)
(-0.0174251 0.00266708 0)
(-0.0161264 0.00289325 0)
(-0.018096 0.00389917 0)
(-0.0168423 0.00229783 0)
(-0.0201764 0.00281417 0)
(-0.0172522 3.7865e-05 0)
(-0.0226516 -0.000313274 0)
(-0.0164593 -0.00848778 0)
(-0.0271905 -0.0178976 0)
(-0.00298696 -0.0381493 0)
(-0.00732234 0.0397705 0)
(-0.018179 0.0372259 0)
(-0.0256327 0.0210862 0)
(-0.0253296 0.00725041 0)
(-0.0233704 -0.00448787 0)
(-0.0198952 -0.0104123 0)
(-0.0166085 -0.0114115 0)
(-0.0137087 -0.0120953 0)
(-0.0120601 -0.00872787 0)
(-0.00882636 -0.0050748 0)
(-0.00756994 -0.00320305 0)
(-0.00379899 -0.00285291 0)
(-0.00554796 -0.000508939 0)
(-0.000237373 -0.00116502 0)
(-0.00527521 0.00110514 0)
(0.0020973 -0.00211527 0)
(-0.00526858 -0.000531162 0)
(0.00323608 -0.00303771 0)
(-0.00840064 -0.010467 0)
(0.000417681 -0.0442414 0)
(-0.00519986 0.0495394 0)
(-0.00840709 0.0442603 0)
(-0.00971668 0.024871 0)
(-0.00729066 0.00737152 0)
(-0.00565438 -0.00522199 0)
(-0.00380872 -0.0111384 0)
(-0.00338652 -0.0122276 0)
(-0.00238271 -0.0104676 0)
(-0.00304733 -0.00729248 0)
(-0.00165633 -0.00440028 0)
(-0.0022172 -0.00182145 0)
(3.2328e-05 -0.000621335 0)
(-0.00206111 0.00120411 0)
(0.000863468 0.000859303 0)
(-0.00205933 0.00150207 0)
(0.0011898 -0.000797521 0)
(-0.0035968 -0.000974729 0)
(-1.78827e-05 -0.00668133 0)
(-0.00767247 -0.0151369 0)
(0.00253122 -0.0490576 0)
(-0.00249695 0.0552842 0)
(0.00103853 0.0454186 0)
(0.00389159 0.0244656 0)
(0.00758848 0.00541947 0)
(0.00834257 -0.00674475 0)
(0.00726893 -0.0119675 0)
(0.004616 -0.0123538 0)
(0.00234949 -0.0105895 0)
(-0.00022177 -0.00806924 0)
(-0.00035457 -0.00556855 0)
(-0.0018712 -0.00352664 0)
(-2.76949e-05 -0.00270057 0)
(-0.00196143 -0.000927628 0)
(0.00165889 -0.00147074 0)
(-0.00116773 0.000736189 0)
(0.00312856 -0.00137376 0)
(-0.00156717 0.00108659 0)
(0.00242894 -0.00155541 0)
(-0.00316971 -0.0108535 0)
(0.00210505 -0.0493575 0)
(0.000707125 0.0537334 0)
(0.00951427 0.0396229 0)
(0.0148843 0.020137 0)
(0.0179428 0.00422064 0)
(0.016504 -0.0049455 0)
(0.0128318 -0.00818232 0)
(0.00851396 -0.00809843 0)
(0.00578839 -0.00682362 0)
(0.00298435 -0.00513333 0)
(0.00290487 -0.00359144 0)
(0.000559107 -0.00218037 0)
(0.00232227 -0.0013553 0)
(-0.000569309 -0.000157059 0)
(0.0023991 -0.0001049 0)
(-0.00130023 0.000741211 0)
(0.00277772 -0.000478522 0)
(-0.00239617 0.000397572 0)
(0.00313062 -0.00423768 0)
(-0.00364359 -0.0141224 0)
(0.00354217 -0.0514527 0)
(0.00420437 0.0431744 0)
(0.0146817 0.0302613 0)
(0.0198832 0.0160156 0)
(0.0209172 0.00478397 0)
(0.01821 -0.00172741 0)
(0.0143645 -0.00467606 0)
(0.0103193 -0.0053787 0)
(0.00757484 -0.00517472 0)
(0.00469078 -0.00418605 0)
(0.00425554 -0.00352284 0)
(0.00172031 -0.00219308 0)
(0.00324602 -0.00212339 0)
(0.000256948 -0.000586225 0)
(0.00322875 -0.00144353 0)
(-0.000609979 0.000551787 0)
(0.00353417 -0.00107126 0)
(-0.00182641 0.000758671 0)
(0.00325133 -0.00171253 0)
(-0.00308646 -0.0119487 0)
(0.00317451 -0.0502626 0)
(0.00564193 0.0303979 0)
(0.0150763 0.0218259 0)
(0.0186583 0.0127399 0)
(0.0186475 0.00569619 0)
(0.0160151 0.00119807 0)
(0.0128338 -0.00101026 0)
(0.00951101 -0.0017327 0)
(0.00749074 -0.0018058 0)
(0.00467498 -0.00135333 0)
(0.00468879 -0.001046 0)
(0.00163762 -0.000359742 0)
(0.00360411 -0.000161914 0)
(-0.000215731 0.00057099 0)
(0.00346515 0.000449312 0)
(-0.0014039 0.00134853 0)
(0.00373354 0.000465019 0)
(-0.00236602 0.00154019 0)
(0.00411098 -0.0024538 0)
(-0.00319305 -0.0128259 0)
(0.00428776 -0.0509697 0)
(0.00461455 0.0204013 0)
(0.0114546 0.0172449 0)
(0.0146781 0.0124932 0)
(0.0152435 0.00773115 0)
(0.0140577 0.0042796 0)
(0.0122154 0.0014438 0)
(0.00976407 -0.000108169 0)
(0.00797158 -0.00127954 0)
(0.00555548 -0.00113138 0)
(0.00532335 -0.00163048 0)
(0.00273122 -0.000642797 0)
(0.00431023 -0.00135626 0)
(0.000954892 9.67038e-05 0)
(0.00421247 -0.00121217 0)
(-0.000601974 0.00058886 0)
(0.00424397 -0.00101468 0)
(-0.00240511 0.00067455 0)
(0.00406939 -0.00232444 0)
(-0.00441637 -0.0127793 0)
(0.00374222 -0.0508635 0)
(0.00355065 0.0140109 0)
(0.00915857 0.0122617 0)
(0.010911 0.00926571 0)
(0.011296 0.00658671 0)
(0.0101871 0.00444999 0)
(0.00889658 0.00361354 0)
(0.00722412 0.00296872 0)
(0.0066349 0.00229204 0)
(0.00444642 0.00206207 0)
(0.0050528 0.00142914 0)
(0.00188163 0.00160197 0)
(0.00421489 0.00115735 0)
(-0.000335825 0.00174264 0)
(0.00418329 0.00149384 0)
(-0.00214455 0.00250774 0)
(0.00506924 0.00181273 0)
(-0.00261495 0.00276572 0)
(0.00545664 -0.00024135 0)
(-0.00381568 -0.0109181 0)
(0.0055251 -0.0505318 0)
(0.00291772 0.0075333 0)
(0.00665707 0.0112494 0)
(0.00948457 0.0108644 0)
(0.0105402 0.00903256 0)
(0.0103546 0.00687864 0)
(0.00947214 0.0034198 0)
(0.00758835 0.00185247 0)
(0.00650954 0.000425114 0)
(0.00443974 0.00058864 0)
(0.00490567 -8.96894e-05 0)
(0.00225447 0.000478923 0)
(0.00468587 -0.000181165 0)
(0.000710957 0.000350592 0)
(0.00520539 -0.000458571 0)
(-0.000518402 -9.96391e-05 0)
(0.00507274 -0.00166813 0)
(-0.00321905 0.000769125 0)
(0.00590492 -0.00253741 0)
(-0.0058251 -0.0134339 0)
(0.0051365 -0.0512047 0)
(0.00554631 0.00453761 0)
(0.00906227 0.00636554 0)
(0.0071416 0.00536151 0)
(0.00760557 0.00561267 0)
(0.00763444 0.00614207 0)
(0.00778738 0.00743676 0)
(0.00689104 0.00688344 0)
(0.00667767 0.00603376 0)
(0.00440418 0.00475989 0)
(0.00498953 0.00379121 0)
(0.00194461 0.00301506 0)
(0.00375294 0.0026134 0)
(-0.000213975 0.00257091 0)
(0.00286191 0.0024799 0)
(-0.00322986 0.00422462 0)
(0.00483989 0.00407848 0)
(-0.00534733 0.00324141 0)
(0.00667285 0.00208882 0)
(-0.00491125 -0.00792059 0)
(0.00594963 -0.0495383 0)
(0.00521368 -0.00901736 0)
(0.0090855 0.0110455 0)
(0.00911954 0.0110885 0)
(0.00732603 0.00950852 0)
(0.00378127 0.00644507 0)
(0.00243528 0.00263193 0)
(0.00168082 0.00246742 0)
(0.00172915 0.00124591 0)
(0.00145685 0.00189716 0)
(0.00241054 0.00082539 0)
(0.000837153 0.0015469 0)
(0.00371851 0.000631156 0)
(-0.00131733 0.000971788 0)
(0.00695019 0.00141519 0)
(-0.00275858 -0.00253745 0)
(0.00780285 -0.00063364 0)
(-0.0046065 -0.00103002 0)
(0.00929942 -0.00404875 0)
(-0.00692902 -0.014388 0)
(0.00619108 -0.051415 0)
(-0.00155274 -0.0109312 0)
(0.00565214 0.00305808 0)
(0.00398265 0.00691277 0)
(0.00905418 0.0103616 0)
(0.0116721 0.0104148 0)
(0.0116939 0.0105817 0)
(0.0100857 0.00826426 0)
(0.0099804 0.007522 0)
(0.00618069 0.00499848 0)
(0.00768178 0.00538883 0)
(0.00276518 0.00267527 0)
(0.00626889 0.00544443 0)
(0.000399672 0.000549917 0)
(0.00278339 0.00415075 0)
(-0.00115677 0.00527395 0)
(-0.0035824 0.00562859 0)
(-0.0101443 0.00341189 0)
(0.00671114 0.00353886 0)
(-0.00638014 -0.000862663 0)
(0.00782294 -0.0495369 0)
(-0.00470682 -0.0119911 0)
(0.00917153 0.0096782 0)
(-0.00314154 0.0045905 0)
(0.00146628 0.00442619 0)
(-0.00390032 0.00452071 0)
(0.000485023 0.00395492 0)
(-0.00239097 0.00450563 0)
(-0.00139982 0.00364748 0)
(-0.00151566 0.00387584 0)
(-0.00284147 0.00264359 0)
(-0.000582262 0.00275236 0)
(-0.00477473 0.00146281 0)
(-0.000811823 0.00414792 0)
(-0.00446818 0.00195707 0)
(-0.0055149 0.0022649 0)
(0.00657789 0.00607356 0)
(-0.00244964 -0.0109447 0)
(0.00297926 -0.00956696 0)
(-0.00964223 -0.0184746 0)
(0.00686778 -0.0533445 0)
(0.000706517 -0.0198768 0)
(0.00272134 0.000490818 0)
(-0.000316545 0.0139444 0)
(0.00316449 0.0103729 0)
(0.00548692 0.0106287 0)
(0.00459702 0.00915295 0)
(0.0062237 0.00900845 0)
(0.00896344 0.00757978 0)
(0.00616382 0.00630937 0)
(0.0126319 0.005976 0)
(0.00459443 0.004392 0)
(0.0150778 0.0078759 0)
(0.00125622 -0.00029816 0)
(0.0169393 0.00969869 0)
(-0.00163798 -0.00371833 0)
(0.0118994 0.00336658 0)
(-0.002506 0.00946857 0)
(0.00772905 0.0102744 0)
(-0.00637111 0.000837355 0)
(0.00943931 -0.0503505 0)
(-0.000723347 -0.00943675 0)
(-0.0146775 0.0108472 0)
(-0.00731185 0.00454734 0)
(-0.00824654 -0.00094975 0)
(-0.00764891 0.00516046 0)
(-0.00494576 0.00138519 0)
(-0.00774321 0.00230695 0)
(-0.00183449 0.00268531 0)
(-0.00839817 0.00146153 0)
(-0.00080076 0.00257226 0)
(-0.00821551 0.000590474 0)
(-0.000441143 0.0033181 0)
(-0.00460624 0.000990055 0)
(-0.00462171 0.005542 0)
(0.000492136 0.0064779 0)
(-0.00564957 0.00452727 0)
(-0.00487587 -0.00733817 0)
(0.0124879 -0.00680448 0)
(-0.00653919 -0.0237427 0)
(0.00836188 -0.0529367 0)
(-0.00825102 -0.0100933 0)
(0.00403801 0.0103848 0)
(0.00845327 0.0055293 0)
(0.00262498 0.00970716 0)
(0.00766265 0.00814401 0)
(0.00626965 0.00811984 0)
(0.00789845 0.00653512 0)
(0.00903271 0.00642535 0)
(0.00973372 0.00628721 0)
(0.00991077 0.00514597 0)
(0.0107343 0.00611411 0)
(0.00966351 0.00497445 0)
(0.01108 0.00363501 0)
(0.011711 0.00738709 0)
(0.00873523 -0.00446763 0)
(0.0150558 0.0100929 0)
(0.00769412 -0.00572049 0)
(0.0117275 0.0107002 0)
(-0.00343489 0.0111344 0)
(0.0144036 -0.0463158 0)
(-0.0203153 -0.00392702 0)
(-0.0119927 -0.00291754 0)
(-0.0216486 0.0042746 0)
(-0.0122229 -0.000868021 0)
(-0.0191145 0.00234256 0)
(-0.00864604 0.000564633 0)
(-0.0172538 0.000654732 0)
(-0.00710449 0.000928877 0)
(-0.0152256 0.0011463 0)
(-0.00434471 0.000398014 0)
(-0.0154331 0.000939162 0)
(0.00148372 0.000576342 0)
(-0.0158727 -0.000606078 0)
(0.0049161 0.00663183 0)
(-0.00987681 0.00109886 0)
(-0.0024726 0.00715755 0)
(0.00310612 -0.00440114 0)
(-0.0125294 -0.000395994 0)
(0.0183417 -0.0288731 0)
(0.0137934 -0.051368 0)
(0.000104793 0.0178271 0)
(0.0160116 0.0136545 0)
(0.0113923 0.00660178 0)
(0.0234336 0.00689392 0)
(0.0215251 0.00524643 0)
(0.0268644 0.00513238 0)
(0.0300419 0.00456467 0)
(0.0306515 0.00474927 0)
(0.0366759 0.00403775 0)
(0.0349729 0.00412301 0)
(0.0408466 0.00386507 0)
(0.0407647 0.00266974 0)
(0.0426233 0.00428342 0)
(0.0460689 0.000167937 0)
(0.0459642 0.0034121 0)
(0.0501864 -0.000501051 0)
(0.0504772 0.00182969 0)
(0.0510584 0.000137494 0)
(0.0438567 -0.00507185 0)
(0.0256655 -0.00127527 0)
)
;

boundaryField
{
    movingWall
    {
        type            fixedValue;
        value           uniform (1 0 0);
    }
    fixedWalls
    {
        type            noSlip;
    }
    frontAndBack
    {
        type            empty;
    }
}


// ************************************************************************* //
