/*--------------------------------*- C++ -*----------------------------------*\
| =========                 |                                                 |
| \\      /  F ield         | OpenFOAM: The Open Source CFD Toolbox           |
|  \\    /   O peration     | Version:  5.x                                   |
|   \\  /    A nd           | Web:      www.OpenFOAM.org                      |
|    \\/     M anipulation  |                                                 |
\*---------------------------------------------------------------------------*/
FoamFile
{
    version     2.0;
    format      ascii;
    class       volVectorField;
    location    "17.5";
    object      U;
}
// * * * * * * * * * * * * * * * * * * * * * * * * * * * * * * * * * * * * * //

dimensions      [0 1 -1 0 0 0 0];

internalField   nonuniform List<vector> 
400
(
(-0.0175745 0.00917237 0)
(-0.0401605 0.00906323 0)
(-0.050016 0.00282267 0)
(-0.0557468 0.00225299 0)
(-0.0585322 8.33863e-05 0)
(-0.0606546 0.000312849 0)
(-0.0616961 -0.000809146 0)
(-0.0629183 -0.000366706 0)
(-0.0626853 -0.00142723 0)
(-0.0641023 -0.000835145 0)
(-0.0626825 -0.00181251 0)
(-0.0647058 -0.0012649 0)
(-0.0618997 -0.0023748 0)
(-0.0637682 -0.001559 0)
(-0.0602219 -0.00248648 0)
(-0.0607348 -0.0026084 0)
(-0.0551772 -0.00411368 0)
(-0.0519205 -0.00800138 0)
(-0.0476891 -0.0113633 0)
(-0.00459781 -0.0213952 0)
(-0.0126372 0.038137 0)
(-0.0228595 0.0246072 0)
(-0.0246977 0.011566 0)
(-0.0285214 0.00672538 0)
(-0.0255374 0.002661 0)
(-0.0299707 0.00283935 0)
(-0.024908 0.0012362 0)
(-0.031212 0.00228225 0)
(-0.0238013 0.000999825 0)
(-0.0331813 0.00205665 0)
(-0.0239282 0.000847759 0)
(-0.0356248 0.00136996 0)
(-0.0239275 -0.000274799 0)
(-0.0337497 -0.000635037 0)
(-0.0244909 -0.00108544 0)
(-0.0298564 -0.00236129 0)
(-0.0272764 -0.00223177 0)
(-0.0225641 -0.0122972 0)
(-0.0375252 -0.0243222 0)
(0.000221372 -0.0462352 0)
(-0.00730811 0.0485342 0)
(-0.0099932 0.0290349 0)
(-0.0119873 0.0129543 0)
(-0.0109936 0.00449239 0)
(-0.00920034 0.00156161 0)
(-0.0121819 0.000660306 0)
(-0.00786711 -0.000405868 0)
(-0.0142482 -5.48256e-05 0)
(-0.00921243 -0.000232825 0)
(-0.0161804 0.000112139 0)
(-0.0113327 0.000407079 0)
(-0.0163239 -0.000753426 0)
(-0.0112098 -0.00237054 0)
(-0.0145545 -0.00294265 0)
(-0.0144934 -0.00230471 0)
(-0.0109003 -0.00225817 0)
(-0.0165801 -0.00375473 0)
(0.00298118 -0.00200622 0)
(-0.0139384 -0.0137501 0)
(0.00139833 -0.0560988 0)
(-0.00491934 0.0533684 0)
(-0.00523231 0.0336333 0)
(-0.00440668 0.0102828 0)
(-0.00452091 0.00521694 0)
(-0.00197824 0.00191124 0)
(-0.00497305 0.00202921 0)
(-0.0023466 0.00230424 0)
(-0.00676206 0.00312768 0)
(-0.00376381 0.00291555 0)
(-0.00804207 0.00304054 0)
(-0.00439201 0.00127252 0)
(-0.00707768 -4.1305e-05 0)
(-0.00566869 -0.00104219 0)
(-0.00608684 0.000126789 0)
(-0.0103407 -0.00276805 0)
(-0.011384 -0.00506829 0)
(-0.0159628 -0.0162786 0)
(-0.00855881 -0.0179288 0)
(-0.0131591 -0.0254693 0)
(0.00458474 -0.0626156 0)
(-0.00188126 0.0567757 0)
(-0.0012153 0.0309748 0)
(-0.00167541 0.0108622 0)
(-0.00032069 0.0025562 0)
(0.000509258 0.00179066 0)
(-0.00117762 0.00143907 0)
(-0.000832675 0.00183111 0)
(-0.00265895 0.00181282 0)
(-0.00190746 0.00174167 0)
(-0.0032319 0.00105137 0)
(-0.00276278 0.000247394 0)
(-0.00322794 0.000436711 0)
(-0.00331998 -0.0020016 0)
(-0.0018956 0.000491559 0)
(-0.00861472 0.00451394 0)
(-0.00163331 0.00219778 0)
(-0.00944673 -0.00177323 0)
(0.00117203 -0.0094795 0)
(-0.00587945 -0.0191379 0)
(0.00294054 -0.0645263 0)
(-0.00219417 0.0567331 0)
(-0.000389371 0.0341244 0)
(-0.0006288 0.008994 0)
(0.000219896 0.00332005 0)
(-0.000412094 0.00252547 0)
(-0.00142442 0.00360497 0)
(-0.00093095 0.00315616 0)
(-0.00205177 0.00367148 0)
(-0.00243597 0.00322095 0)
(-0.00212267 0.00294261 0)
(-0.00224995 0.0012343 0)
(-0.00500684 1.53399e-05 0)
(-0.00543347 -0.00286759 0)
(0.00172629 0.00541585 0)
(-0.00531794 -0.00187804 0)
(0.00399347 -0.00492923 0)
(-0.00614955 -0.0183679 0)
(-0.00366093 -0.0212808 0)
(-0.00564788 -0.0310826 0)
(0.00323715 -0.0674301 0)
(0.0011065 0.0568548 0)
(0.00055891 0.0293479 0)
(0.00219958 0.00826984 0)
(0.000477527 0.00192565 0)
(0.00086357 0.00297745 0)
(0.000712162 0.00157108 0)
(-0.000322315 0.00271454 0)
(-0.000678376 0.00351903 0)
(-0.00210915 0.00230707 0)
(-0.00170639 0.00105498 0)
(-0.00245699 0.00380555 0)
(-0.000325966 0.00440806 0)
(-0.00121993 -0.00751412 0)
(0.00487535 -0.00128444 0)
(-0.00764209 0.00303835 0)
(0.00600162 0.00180544 0)
(-0.00504962 0.00726668 0)
(0.00162391 -0.0109553 0)
(-0.00162124 -0.0214323 0)
(0.00275224 -0.0661499 0)
(-0.000726614 0.0559677 0)
(0.0018174 0.0333726 0)
(0.00106648 0.0110496 0)
(0.00280092 0.00509638 0)
(0.000586062 0.00299772 0)
(0.00159121 0.00533275 0)
(-0.000894466 0.00507053 0)
(-0.00186365 0.00525427 0)
(-0.00132312 0.00520657 0)
(-0.00116801 0.00298411 0)
(-0.00934154 -0.00089577 0)
(-0.00596138 -0.00187389 0)
(-8.15766e-06 -0.00809514 0)
(3.58804e-06 0.0125554 0)
(-0.00637053 -0.00312582 0)
(-0.00251245 -0.00727745 0)
(-0.00412752 -0.0133709 0)
(-0.000672315 -0.0251447 0)
(-0.00277439 -0.0362255 0)
(0.00182576 -0.0699119 0)
(0.00212981 0.054049 0)
(0.000768376 0.0283785 0)
(0.00272177 0.00486941 0)
(0.000491028 0.00183652 0)
(0.00063603 0.00342604 0)
(0.00145316 0.0022772 0)
(0.00281382 0.00509594 0)
(0.00393381 0.00367165 0)
(0.00529044 0.00036638 0)
(0.00708494 0.00760056 0)
(-0.00231362 0.0099559 0)
(-0.000373665 -0.00472072 0)
(-0.00225204 -0.0154991 0)
(0.0028114 0.00496317 0)
(-0.0082096 0.00645634 0)
(0.00875727 -0.00235817 0)
(-0.00368583 0.00436489 0)
(0.00882073 -0.0134173 0)
(-0.00190086 -0.0218044 0)
(0.00258566 -0.0654454 0)
(-0.000801067 0.0533862 0)
(0.00352796 0.0311469 0)
(0.00190401 0.0134707 0)
(0.00369343 0.00747235 0)
(0.00334969 0.00324638 0)
(0.00257968 0.00319278 0)
(0.00317303 0.00451347 0)
(0.00448167 0.00262549 0)
(-0.00420735 0.00455413 0)
(-0.00652244 0.0101761 0)
(-0.00826803 0.00916678 0)
(-0.00283367 -0.00337409 0)
(-0.00909482 -0.00707734 0)
(-0.00464123 0.0157208 0)
(-0.0125926 -0.00817028 0)
(0.00728499 -0.011499 0)
(-0.00142372 -0.010005 0)
(0.0123319 -0.0268935 0)
(-0.00184714 -0.0314901 0)
(0.00226672 -0.0678386 0)
(0.00259092 0.0510062 0)
(0.00129322 0.0280449 0)
(0.00288552 0.0033806 0)
(0.0042758 -0.000441149 0)
(0.00468365 0.00432091 0)
(0.00301071 0.00188686 0)
(0.00587651 0.00271163 0)
(0.00450789 0.00963891 0)
(-0.00219747 0.00992226 0)
(-0.00583136 0.0121997 0)
(-0.00790472 0.00451262 0)
(-0.00521088 -0.00696504 0)
(-0.0117653 -0.0173324 0)
(-0.000542635 0.0134056 0)
(-0.00166168 -0.0080252 0)
(0.00625747 -0.0154016 0)
(0.000920029 -0.00252295 0)
(0.00286495 -0.0118993 0)
(-0.00153546 -0.00809519 0)
(0.0046619 -0.06401 0)
(-0.00108385 0.0499977 0)
(0.00344362 0.0286102 0)
(0.000969177 0.0119936 0)
(0.00268914 0.00581535 0)
(-0.00375493 0.0051376 0)
(-0.00160216 0.000821837 0)
(-0.00255858 0.00442111 0)
(0.00216218 0.010295 0)
(0.0024089 0.0139773 0)
(0.000550139 0.0149233 0)
(0.000741684 0.0104066 0)
(-0.000495512 0.00100861 0)
(-0.00551106 -0.00809641 0)
(-0.00807768 0.00610444 0)
(0.00636311 -0.0138354 0)
(-0.00655268 -0.011374 0)
(-0.00474251 -0.0036872 0)
(0.000977986 -0.0286059 0)
(-0.00634448 -0.0324878 0)
(0.0038219 -0.0715676 0)
(0.00205711 0.0477126 0)
(0.00168017 0.0266068 0)
(0.00329572 0.00302623 0)
(-0.0028558 0.00310976 0)
(-0.00267043 0.00903084 0)
(-0.00203088 0.000541833 0)
(-0.00671837 -0.00134681 0)
(-0.0054097 0.00704033 0)
(-0.000605764 0.0111091 0)
(0.000680338 0.0170119 0)
(0.0033401 0.0059637 0)
(-0.00175149 0.000344028 0)
(0.00431808 -0.0106084 0)
(-0.0110517 -0.000871767 0)
(0.0146014 -0.0120296 0)
(-0.00424713 -0.0088439 0)
(0.000833384 -0.00968004 0)
(0.00723147 -0.0128066 0)
(-0.00480998 -0.013624 0)
(0.00495159 -0.0630496 0)
(-0.000856945 0.04692 0)
(0.00450777 0.028043 0)
(0.00225752 0.0178646 0)
(0.00474795 0.0126202 0)
(-0.000317413 0.00556901 0)
(0.00253806 0.00306997 0)
(0.00100447 0.00896971 0)
(0.000418313 0.00475519 0)
(0.000412203 0.00788848 0)
(0.00273542 0.00975293 0)
(0.0068758 0.00965143 0)
(0.00288384 0.000496703 0)
(0.00821137 -0.00144001 0)
(-0.000689491 -0.00386241 0)
(0.0127084 -0.0152614 0)
(0.00421945 0.00228383 0)
(0.0121626 -0.00986923 0)
(0.0140699 -0.0212892 0)
(0.000114776 -0.0234043 0)
(0.0072916 -0.0671884 0)
(0.000801659 0.04363 0)
(0.00230422 0.0219878 0)
(0.00250522 0.00296039 0)
(0.00228493 0.00292322 0)
(0.0116906 0.0114241 0)
(0.00486762 0.00122569 0)
(0.01437 -0.00165766 0)
(0.00611213 0.00806793 0)
(0.016419 0.00614536 0)
(0.0170725 0.0113362 0)
(0.0169274 0.00788495 0)
(0.0229424 -0.000514124 0)
(0.0163761 -0.00597419 0)
(0.0240143 -0.00899179 0)
(0.0214128 -0.0173975 0)
(0.0199472 -0.0144373 0)
(0.0148823 -0.0179796 0)
(0.00410289 -0.00542572 0)
(-0.0104182 -0.00912473 0)
(0.00843619 -0.0650631 0)
(-0.000478602 0.0434868 0)
(0.00629364 0.0249149 0)
(0.00316727 0.0199629 0)
(0.00682615 0.00355503 0)
(-0.00408784 0.00454982 0)
(0.0177162 -0.000922654 0)
(-0.000889347 0.00707175 0)
(0.0138261 0.00539614 0)
(0.0174577 -0.00554634 0)
(0.0221934 0.0120097 0)
(0.0287619 0.00331762 0)
(0.0238675 0.00379588 0)
(0.0284764 -0.00140301 0)
(0.0175676 -0.00897651 0)
(0.011179 -0.00167143 0)
(0.0105576 0.00649339 0)
(-0.0190902 0.0121046 0)
(0.00831772 -0.00178674 0)
(-0.00803326 -0.0213875 0)
(0.0092309 -0.0673388 0)
(0.000365496 0.038122 0)
(0.00460803 0.019379 0)
(0.000665567 0.00248409 0)
(0.00968562 0.0074568 0)
(0.00068914 0.00196247 0)
(0.0105421 -0.00115704 0)
(0.00375258 -0.000303935 0)
(0.0203409 -0.0063527 0)
(0.0206093 -0.00827247 0)
(0.0191428 0.00212972 0)
(0.0310577 0.00546828 0)
(0.0123003 -0.00456506 0)
(0.0303233 0.00425512 0)
(-0.00289752 -0.000362659 0)
(0.00722271 -0.0104084 0)
(-0.00877451 0.00828967 0)
(0.00698045 -0.0122249 0)
(0.0196196 -0.0201568 0)
(-0.00533427 -0.0151354 0)
(0.010093 -0.0651863 0)
(0.00236775 0.0372304 0)
(0.0112716 0.0224588 0)
(0.0124472 0.0161456 0)
(0.00857062 0.00569107 0)
(0.0166088 0.00152281 0)
(0.0108386 -0.00287799 0)
(0.0237563 -0.00569959 0)
(0.0122383 -0.0110829 0)
(0.0262291 -0.002236 0)
(0.00265874 0.00322221 0)
(0.0341756 0.0105218 0)
(0.00961576 0.00807701 0)
(0.0328097 0.00898219 0)
(0.0194073 0.017633 0)
(0.0325208 0.00607033 0)
(0.0113294 0.0117413 0)
(0.0277246 -0.012722 0)
(0.00478189 0.0112296 0)
(-0.00163725 -0.00155632 0)
(0.0148338 -0.0632787 0)
(0.00318448 0.0260633 0)
(0.0139478 0.0148263 0)
(0.0145317 0.00445842 0)
(0.021455 0.00275321 0)
(0.0134661 -0.00124697 0)
(0.0130619 -0.00337409 0)
(0.00266996 -0.00395299 0)
(-0.00744711 -0.00372504 0)
(-0.0174926 -0.00381458 0)
(-0.0187037 -0.00387639 0)
(-0.01686 -0.00407149 0)
(-0.0127983 -0.00646334 0)
(-0.018748 -0.00479677 0)
(-0.00297345 0.00417829 0)
(-0.00681526 -0.00531978 0)
(0.000172811 0.00674086 0)
(0.00605435 -0.00436492 0)
(-0.0138938 0.00192753 0)
(0.0233102 -0.0344231 0)
(0.0140917 -0.0593813 0)
(0.00837319 0.01947 0)
(0.0318233 0.0120632 0)
(0.0353731 0.0114628 0)
(0.0469699 0.00684086 0)
(0.0464203 0.00854289 0)
(0.0541106 0.00715994 0)
(0.052579 0.00973927 0)
(0.0584748 0.00949524 0)
(0.0573636 0.00913099 0)
(0.0632192 0.00714915 0)
(0.0610355 0.00633568 0)
(0.0648611 0.00571463 0)
(0.0633774 0.00609835 0)
(0.0642712 0.00134883 0)
(0.0641575 0.00401308 0)
(0.0671547 0.000452575 0)
(0.0646071 0.00242114 0)
(0.067565 -0.00231883 0)
(0.0564604 -0.00778739 0)
(0.0374853 -0.0103285 0)
)
;

boundaryField
{
    movingWall
    {
        type            fixedValue;
        value           uniform (1 0 0);
    }
    fixedWalls
    {
        type            noSlip;
    }
    frontAndBack
    {
        type            empty;
    }
}


// ************************************************************************* //
